S     ONCVPSP-3.3.1  r_core=   2.76847   1.80194
     16.0000      6.0000      191231    zatom,zion,pspd
     8      11   1     4   600     0    pspcod,pspxc,lmax,lloc,mmax,r2well
  5.99000000  0.00000000  0.00000000    rchrg fchrg qchrg
     2     2     0     0     0    nproj
     1     1           extension_switch
   0                         4.6391061827558E+00 -2.3972793736310E+00
     1  0.0000000000000E+00 -5.1354476227061E-12 -4.1279257789739E-11
     2  1.0000000000000E-02  4.3270231201160E-02  4.6185110993054E-02
     3  2.0000000000000E-02  8.6482456628940E-02  9.2145105519786E-02
     4  3.0000000000000E-02  1.2957880370757E-01  1.3765580303175E-01
     5  4.0000000000000E-02  1.7250166585461E-01  1.8249489139081E-01
     6  5.0000000000000E-02  2.1519383447425E-01  2.2644285252110E-01
     7  6.0000000000000E-02  2.5759862975013E-01  2.6928387782614E-01
     8  7.0000000000000E-02  2.9966002984357E-01  3.1080677000791E-01
     9  8.0000000000000E-02  3.4132279810816E-01  3.5080582796586E-01
    10  9.0000000000000E-02  3.8253260793818E-01  3.8908171150534E-01
    11  1.0000000000000E-01  4.2323616487576E-01  4.2544228264646E-01
    12  1.1000000000000E-01  4.6338132561071E-01  4.5970342039577E-01
    13  1.2000000000000E-01  5.0291721351700E-01  4.9168980592423E-01
    14  1.3000000000000E-01  5.4179433038116E-01  5.2123567518587E-01
    15  1.4000000000000E-01  5.7996466399009E-01  5.4818553611149E-01
    16  1.5000000000000E-01  6.1738179125972E-01  5.7239484762100E-01
    17  1.6000000000000E-01  6.5400097660016E-01  5.9373065781637E-01
    18  1.7000000000000E-01  6.8977926522905E-01  6.1207219884363E-01
    19  1.8000000000000E-01  7.2467557116133E-01  6.2731143604799E-01
    20  1.9000000000000E-01  7.5865075962159E-01  6.3935356918875E-01
    21  2.0000000000000E-01  7.9166772364352E-01  6.4811748363222E-01
    22  2.1000000000000E-01  8.2369145464100E-01  6.5353614959853E-01
    23  2.2000000000000E-01  8.5468910675525E-01  6.5555696770396E-01
    24  2.3000000000000E-01  8.8463005480414E-01  6.5414205921189E-01
    25  2.4000000000000E-01  9.1348594568143E-01  6.4926849958361E-01
    26  2.5000000000000E-01  9.4123074307650E-01  6.4092849410396E-01
    27  2.6000000000000E-01  9.6784076540822E-01  6.2912949454579E-01
    28  2.7000000000000E-01  9.9329471689071E-01  6.1389425603091E-01
    29  2.8000000000000E-01  1.0175737116728E+00  5.9526083344361E-01
    30  2.9000000000000E-01  1.0406612910181E+00  5.7328251695435E-01
    31  3.0000000000000E-01  1.0625434335169E+00  5.4802770641690E-01
    32  3.1000000000000E-01  1.0832085583482E+00  5.1957972460966E-01
    33  3.2000000000000E-01  1.1026475216337E+00  4.8803656950249E-01
    34  3.3000000000000E-01  1.1208536059535E+00  4.5351060594165E-01
    35  3.4000000000000E-01  1.1378225031164E+00  4.1612819735840E-01
    36  3.5000000000000E-01  1.1535522903081E+00  3.7602927832000E-01
    37  3.6000000000000E-01  1.1680433997600E+00  3.3336686895460E-01
    38  3.7000000000000E-01  1.1812985821133E+00  2.8830653249365E-01
    39  3.8000000000000E-01  1.1933228636743E+00  2.4102577738632E-01
    40  3.9000000000000E-01  1.2041234977830E+00  1.9171340564871E-01
    41  4.0000000000000E-01  1.2137099105423E+00  1.4056880931671E-01
    42  4.1000000000000E-01  1.2220936411783E+00  8.7801217073552E-02
    43  4.2000000000000E-01  1.2292882773271E+00  3.3628893321907E-02
    44  4.3000000000000E-01  1.2353093855636E+00 -2.1721707836287E-02
    45  4.4000000000000E-01  1.2401744375141E+00 -7.8016831060334E-02
    46  4.5000000000000E-01  1.2439027319110E+00 -1.3501634783751E-01
    47  4.6000000000000E-01  1.2465153129730E+00 -1.9247472114590E-01
    48  4.7000000000000E-01  1.2480348855088E+00 -2.5014200353476E-01
    49  4.8000000000000E-01  1.2484857271656E+00 -3.0776486528323E-01
    50  4.9000000000000E-01  1.2478935982557E+00 -3.6508764914583E-01
    51  5.0000000000000E-01  1.2462856496149E+00 -4.2185344805044E-01
    52  5.1000000000000E-01  1.2436903289575E+00 -4.7780520198078E-01
    53  5.2000000000000E-01  1.2401372862088E+00 -5.3268681015252E-01
    54  5.3000000000000E-01  1.2356572783044E+00 -5.8624425447977E-01
    55  5.4000000000000E-01  1.2302820739600E+00 -6.3822673022782E-01
    56  5.5000000000000E-01  1.2240443589193E+00 -6.8838777965878E-01
    57  5.6000000000000E-01  1.2169776421987E+00 -7.3648642440012E-01
    58  5.7000000000000E-01  1.2091161638513E+00 -7.8228829220212E-01
    59  5.8000000000000E-01  1.2004948047740E+00 -8.2556673369919E-01
    60  5.9000000000000E-01  1.1911489990876E+00 -8.6610392475307E-01
    61  6.0000000000000E-01  1.1811146496161E+00 -9.0369194993237E-01
    62  6.1000000000000E-01  1.1704280469918E+00 -9.3813386267391E-01
    63  6.2000000000000E-01  1.1591257929057E+00 -9.6924471767657E-01
    64  6.3000000000000E-01  1.1472447280226E+00 -9.9685257109859E-01
    65  6.4000000000000E-01  1.1348218650659E+00 -1.0207994441642E+00
    66  6.5000000000000E-01  1.1218943275724E+00 -1.0409422458352E+00
    67  6.6000000000000E-01  1.1084992948034E+00 -1.0571536502694E+00
    68  6.7000000000000E-01  1.0946739532862E+00 -1.0693229248657E+00
    69  6.8000000000000E-01  1.0804554554424E+00 -1.0773567047941E+00
    70  6.9000000000000E-01  1.0658808857451E+00 -1.0811797100178E+00
    71  7.0000000000000E-01  1.0509872348238E+00 -1.0807354009389E+00
    72  7.1000000000000E-01  1.0358113819198E+00 -1.0759865689427E+00
    73  7.2000000000000E-01  1.0203900860650E+00 -1.0669158582677E+00
    74  7.3000000000000E-01  1.0047599863396E+00 -1.0535262157985E+00
    75  7.4000000000000E-01  9.8895761153031E-01 -1.0358412655624E+00
    76  7.5000000000000E-01  9.7301939948965E-01 -1.0139056049068E+00
    77  7.6000000000000E-01  9.5698172645967E-01 -9.8778501954341E-01
    78  7.7000000000000E-01  9.4088094659838E-01 -9.5756661487012E-01
    79  7.8000000000000E-01  9.2475344191013E-01 -9.2335886121276E-01
    80  7.9000000000000E-01  9.0863568274898E-01 -8.8529155087734E-01
    81  8.0000000000000E-01  8.9256429902781E-01 -8.4351566515852E-01
    82  8.1000000000000E-01  8.7657616222961E-01 -7.9820314971752E-01
    83  8.2000000000000E-01  8.6070847827967E-01 -7.4954659701801E-01
    84  8.3000000000000E-01  8.4499889129887E-01 -6.9775883479337E-01
    85  8.4000000000000E-01  8.2948559821869E-01 -6.4307241981039E-01
    86  8.5000000000000E-01  8.1420747418713E-01 -5.8573903648022E-01
    87  8.6000000000000E-01  7.9920420873196E-01 -5.2602880025528E-01
    88  8.7000000000000E-01  7.8451645131869E-01 -4.6422946457520E-01
    89  8.8000000000000E-01  7.7018598744750E-01 -4.0064555570864E-01
    90  8.9000000000000E-01  7.5625587327994E-01 -3.3559735480023E-01
    91  9.0000000000000E-01  7.4277412536965E-01 -2.6942374425349E-01
    92  9.1000000000000E-01  7.2979414794080E-01 -2.0248232637821E-01
    93  9.2000000000000E-01  7.1736951864700E-01 -1.3514249668887E-01
    94  9.3000000000000E-01  7.0554715012981E-01 -6.7774516469156E-02
    95  9.4000000000000E-01  6.9436064931263E-01 -7.3657729640089E-04
    96  9.5000000000000E-01  6.8382459013159E-01  6.5638747625562E-02
    97  9.6000000000000E-01  6.7393053020146E-01  1.3105685003055E-01
    98  9.7000000000000E-01  6.6464536890018E-01  1.9527047690955E-01
    99  9.8000000000000E-01  6.5591231507104E-01  2.5808479280346E-01
   100  9.9000000000000E-01  6.4765434366420E-01  3.1935740740795E-01
   101  1.0000000000000E+00  6.3977964758767E-01  3.7899346787700E-01
   102  1.0100000000000E+00  6.3218828826391E-01  4.3693673323620E-01
   103  1.0200000000000E+00  6.2477910337171E-01  4.9315817721096E-01
   104  1.0300000000000E+00  6.1745597413226E-01  5.4764392344519E-01
   105  1.0400000000000E+00  6.1013275794196E-01  6.0038421522765E-01
   106  1.0500000000000E+00  6.0273650684830E-01  6.5136468118047E-01
   107  1.0600000000000E+00  5.9520891296408E-01  7.0056057627521E-01
   108  1.0700000000000E+00  5.8750620996332E-01  7.4793405198550E-01
   109  1.0800000000000E+00  5.7959792948440E-01  7.9343401795765E-01
   110  1.0900000000000E+00  5.7146495419081E-01  8.3699792357369E-01
   111  1.1000000000000E+00  5.6309727443100E-01  8.7855471161952E-01
   112  1.1100000000000E+00  5.5449177562042E-01  9.1802825634198E-01
   113  1.1200000000000E+00  5.4565025952887E-01  9.5534077530200E-01
   114  1.1300000000000E+00  5.3657780361906E-01  9.9041589084540E-01
   115  1.1400000000000E+00  5.2728148987670E-01  1.0231811655206E+00
   116  1.1500000000000E+00  5.1776948241015E-01  1.0535700553467E+00
   117  1.1600000000000E+00  5.0805039968196E-01  1.0815233176848E+00
   118  1.1700000000000E+00  4.9813292223233E-01  1.1069899456633E+00
   119  1.1800000000000E+00  4.8802557850503E-01  1.1299277136023E+00
   120  1.1900000000000E+00  4.7773665441887E-01  1.1503034253388E+00
   121  1.2000000000000E+00  4.6727418620308E-01  1.1680929429445E+00
   122  1.2100000000000E+00  4.5664600497942E-01  1.1832810583894E+00
   123  1.2200000000000E+00  4.4585980912289E-01  1.1958612596654E+00
   124  1.2300000000000E+00  4.3492324784227E-01  1.2058354303411E+00
   125  1.2400000000000E+00  4.2384400673954E-01  1.2132135068565E+00
   126  1.2500000000000E+00  4.1262988802191E-01  1.2180131136190E+00
   127  1.2600000000000E+00  4.0128888099167E-01  1.2202591902694E+00
   128  1.2700000000000E+00  3.8982922210319E-01  1.2199836167167E+00
   129  1.2800000000000E+00  3.7825944337637E-01  1.2172248421721E+00
   130  1.2900000000000E+00  3.6658840895907E-01  1.2120275220479E+00
   131  1.3000000000000E+00  3.5482534109202E-01  1.2044421625119E+00
   132  1.3100000000000E+00  3.4297983606586E-01  1.1945247737544E+00
   133  1.3200000000000E+00  3.3106187094749E-01  1.1823365322468E+00
   134  1.3300000000000E+00  3.1908180225410E-01  1.1679434507857E+00
   135  1.3400000000000E+00  3.0705035748068E-01  1.1514160558443E+00
   136  1.3500000000000E+00  2.9497862041803E-01  1.1328290712982E+00
   137  1.3600000000000E+00  2.8287801105610E-01  1.1122611076760E+00
   138  1.3700000000000E+00  2.7076026091678E-01  1.0897943561013E+00
   139  1.3800000000000E+00  2.5863738453460E-01  1.0655142861079E+00
   140  1.3900000000000E+00  2.4652164767538E-01  1.0395093468670E+00
   141  1.4000000000000E+00  2.3442553299779E-01  1.0118706710570E+00
   142  1.4100000000000E+00  2.2236170358595E-01  9.8269178122585E-01
   143  1.4200000000000E+00  2.1034296488778E-01  9.5206829828722E-01
   144  1.4300000000000E+00  1.9838222550665E-01  9.2009765196356E-01
   145  1.4400000000000E+00  1.8649245715175E-01  8.8687879339762E-01
   146  1.4500000000000E+00  1.7468665420161E-01  8.5251190974382E-01
   147  1.4600000000000E+00  1.6297779307927E-01  8.1709814124662E-01
   148  1.4700000000000E+00  1.5137879177736E-01  7.8073930092366E-01
   149  1.4800000000000E+00  1.3990246975528E-01  7.4353759730796E-01
   150  1.4900000000000E+00  1.2856150839046E-01  7.0559536073826E-01
   151  1.5000000000000E+00  1.1736841223798E-01  6.6701477359564E-01
   152  1.5100000000000E+00  1.0633547117960E-01  6.2789760515969E-01
   153  1.5200000000000E+00  9.5474723694493E-02  5.8834495153818E-01
   154  1.5300000000000E+00  8.4797921310794E-02  5.4845698134940E-01
   155  1.5400000000000E+00  7.4316494402166E-02  5.0833268769423E-01
   156  1.5500000000000E+00  6.4041519405989E-02  4.6806964706463E-01
   157  1.5600000000000E+00  5.3983687556130E-02  4.2776378572466E-01
   158  1.5700000000000E+00  4.4153275225654E-02  3.8750915422215E-01
   159  1.5800000000000E+00  3.4560115917771E-02  3.4739771046220E-01
   160  1.5900000000000E+00  2.5213574010927E-02  3.0751911205722E-01
   161  1.6000000000000E+00  1.6122520256159E-02  2.6796051820821E-01
   162  1.6100000000000E+00  7.2953091349939E-03  2.2880640189900E-01
   163  1.6200000000000E+00 -1.2602419486865E-03  1.9013837247933E-01
   164  1.6300000000000E+00 -9.5368715446099E-03  1.5203500942133E-01
   165  1.6400000000000E+00 -1.7527891135666E-02  1.1457170721248E-01
   166  1.6500000000000E+00 -2.5227200142718E-02  7.7820532095862E-02
   167  1.6600000000000E+00 -3.2629298993316E-02  4.1850090549473E-02
   168  1.6700000000000E+00 -3.9729300194185E-02  6.7254101161147E-03
   169  1.6800000000000E+00 -4.6522937452179E-02 -2.7492167595960E-02
   170  1.6900000000000E+00 -5.3006572798131E-02 -6.0745081221872E-02
   171  1.7000000000000E+00 -5.9177201766921E-02 -9.2979631526337E-02
   172  1.7100000000000E+00 -6.5032456597984E-02 -1.2414605041724E-01
   173  1.7200000000000E+00 -7.0570607523015E-02 -1.5419855746779E-01
   174  1.7300000000000E+00 -7.5790562109801E-02 -1.8309540353501E-01
   175  1.7400000000000E+00 -8.0691862746766E-02 -2.1079890199941E-01
   176  1.7500000000000E+00 -8.5274682237209E-02 -2.3727544721458E-01
   177  1.7600000000000E+00 -8.9539817609667E-02 -2.6249552086565E-01
   178  1.7700000000000E+00 -9.3488682107797E-02 -2.8643368578936E-01
   179  1.7800000000000E+00 -9.7123295492314E-02 -3.0906856815226E-01
   180  1.7900000000000E+00 -1.0044627261151E-01 -3.3038282749174E-01
   181  1.8000000000000E+00 -1.0346081039334E-01 -3.5036311567157E-01
   182  1.8100000000000E+00 -1.0617067322021E-01 -3.6900002430216E-01
   183  1.8200000000000E+00 -1.0858017684007E-01 -3.8628802167398E-01
   184  1.8300000000000E+00 -1.1069417080228E-01 -4.0222537896903E-01
   185  1.8400000000000E+00 -1.1251801955072E-01 -4.1681408663465E-01
   186  1.8500000000000E+00 -1.1405758220325E-01 -4.3005976099986E-01
   187  1.8600000000000E+00 -1.1531919112000E-01 -4.4197154178592E-01
   188  1.8700000000000E+00 -1.1630962933365E-01 -4.5256198093206E-01
   189  1.8800000000000E+00 -1.1703610691201E-01 -4.6184692313898E-01
   190  1.8900000000000E+00 -1.1750623636664E-01 -4.6984537886856E-01
   191  1.9000000000000E+00 -1.1772800715228E-01 -4.7657938999320E-01
   192  1.9100000000000E+00 -1.1770975939714E-01 -4.8207388905818E-01
   193  1.9200000000000E+00 -1.1746015690206E-01 -4.8635655227699E-01
   194  1.9300000000000E+00 -1.1698815954439E-01 -4.8945764721192E-01
   195  1.9400000000000E+00 -1.1630299515207E-01 -4.9140987546245E-01
   196  1.9500000000000E+00 -1.1541413095273E-01 -4.9224821107203E-01
   197  1.9600000000000E+00 -1.1433124469207E-01 -4.9200973522878E-01
   198  1.9700000000000E+00 -1.1306419551371E-01 -4.9073346782567E-01
   199  1.9800000000000E+00 -1.1162299468994E-01 -4.8846019649914E-01
   200  1.9900000000000E+00 -1.1001777631736E-01 -4.8523230379213E-01
   201  2.0000000000000E+00 -1.0825876803477E-01 -4.8109359290140E-01
   202  2.0100000000000E+00 -1.0635626190099E-01 -4.7608911280627E-01
   203  2.0200000000000E+00 -1.0432058548404E-01 -4.7026498317013E-01
   204  2.0300000000000E+00 -1.0216207326615E-01 -4.6366821967134E-01
   205  2.0400000000000E+00 -9.9891038481794E-02 -4.5634656049290E-01
   206  2.0500000000000E+00 -9.7517745391482E-02 -4.4834829405719E-01
   207  2.0600000000000E+00 -9.5052382202449E-02 -4.3972208929360E-01
   208  2.0700000000000E+00 -9.2505034566949E-02 -4.3051682814255E-01
   209  2.0800000000000E+00 -8.9885659862161E-02 -4.2078144143677E-01
   210  2.0900000000000E+00 -8.7204062301216E-02 -4.1056474856041E-01
   211  2.1000000000000E+00 -8.4469868901310E-02 -3.9991530089199E-01
   212  2.1100000000000E+00 -8.1692506384251E-02 -3.8888123025537E-01
   213  2.1200000000000E+00 -7.8881178961253E-02 -3.7751010170056E-01
   214  2.1300000000000E+00 -7.6044847372106E-02 -3.6584877233549E-01
   215  2.1400000000000E+00 -7.3192209106855E-02 -3.5394325618784E-01
   216  2.1500000000000E+00 -7.0331679811913E-02 -3.4183859480690E-01
   217  2.1600000000000E+00 -6.7471375730108E-02 -3.2957873465474E-01
   218  2.1700000000000E+00 -6.4619097387333E-02 -3.1720641070586E-01
   219  2.1800000000000E+00 -6.1782314696089E-02 -3.0476303760772E-01
   220  2.1900000000000E+00 -5.8968153552836E-02 -2.9228860878159E-01
   221  2.2000000000000E+00 -5.6183383641931E-02 -2.7982160208993E-01
   222  2.2100000000000E+00 -5.3434407713384E-02 -2.6739889426922E-01
   223  2.2200000000000E+00 -5.0727252213838E-02 -2.5505568268681E-01
   224  2.2300000000000E+00 -4.8067559315659E-02 -2.4282541502783E-01
   225  2.2400000000000E+00 -4.5460580566146E-02 -2.3073972816061E-01
   226  2.2500000000000E+00 -4.2911171772265E-02 -2.1882839405294E-01
   227  2.2600000000000E+00 -4.0423789465580E-02 -2.0711927481633E-01
   228  2.2700000000000E+00 -3.8002488830010E-02 -1.9563828621826E-01
   229  2.2800000000000E+00 -3.5650922866008E-02 -1.8440936831522E-01
   230  2.2900000000000E+00 -3.3372343232586E-02 -1.7345446597516E-01
   231  2.3000000000000E+00 -3.1169602319711E-02 -1.6279351658038E-01
   232  2.3100000000000E+00 -2.9045156657455E-02 -1.5244444561424E-01
   233  2.3200000000000E+00 -2.7001071846549E-02 -1.4242317131866E-01
   234  2.3300000000000E+00 -2.5039028602018E-02 -1.3274361595048E-01
   235  2.3400000000000E+00 -2.3160330145416E-02 -1.2341772514221E-01
   236  2.3500000000000E+00 -2.1365910897821E-02 -1.1445549512227E-01
   237  2.3600000000000E+00 -1.9656346171861E-02 -1.0586500596586E-01
   238  2.3700000000000E+00 -1.8031863151859E-02 -9.7652462732219E-02
   239  2.3800000000000E+00 -1.6492352931693E-02 -8.9822243102141E-02
   240  2.3900000000000E+00 -1.5037383420572E-02 -8.2376950370862E-02
   241  2.4000000000000E+00 -1.3666213408104E-02 -7.5317473693125E-02
   242  2.4100000000000E+00 -1.2377807428324E-02 -6.8643053359238E-02
   243  2.4200000000000E+00 -1.1170851370364E-02 -6.2351350818161E-02
   244  2.4300000000000E+00 -1.0043769014058E-02 -5.6438524657336E-02
   245  2.4400000000000E+00 -8.9947391453011E-03 -5.0899310382198E-02
   246  2.4500000000000E+00 -8.0217132669835E-03 -4.5727104144102E-02
   247  2.4600000000000E+00 -7.1224339379398E-03 -4.0914050749768E-02
   248  2.4700000000000E+00 -6.2944535055011E-03 -3.6451134434721E-02
   249  2.4800000000000E+00 -5.5351532208854E-03 -3.2328272428491E-02
   250  2.4900000000000E+00 -4.8417627114226E-03 -2.8534411198416E-02
   251  2.5000000000000E+00 -4.2113796507620E-03 -2.5057624378476E-02
   252  2.5100000000000E+00 -3.6409895878197E-03 -2.1885212208591E-02
   253  2.5200000000000E+00 -3.1274858072376E-03 -1.9003801890884E-02
   254  2.5300000000000E+00 -2.6676892129821E-03 -1.6399448609134E-02
   255  2.5400000000000E+00 -2.2583681206540E-03 -1.4057736660187E-02
   256  2.5500000000000E+00 -1.8962578531127E-03 -1.1963880038196E-02
   257  2.5600000000000E+00 -1.5780801478916E-03 -1.0102822555696E-02
   258  2.5700000000000E+00 -1.3005622606507E-03 -8.4593368168978E-03
   259  2.5800000000000E+00 -1.0604555301890E-03 -7.0181208296062E-03
   260  2.5900000000000E+00 -8.5455361263106E-04 -5.7638932500947E-03
   261  2.6000000000000E+00 -6.7971020942166E-04 -4.6814863548428E-03
   262  2.6100000000000E+00 -5.3285600458145E-04 -3.7559350738627E-03
   263  2.6200000000000E+00 -4.1101507747706E-04 -2.9725636231985E-03
   264  2.6300000000000E+00 -3.1132070646359E-04 -2.3170692227446E-03
   265  2.6400000000000E+00 -2.3103004422284E-04 -1.7755999804153E-03
   266  2.6500000000000E+00 -1.6753813037945E-04 -1.3348295386294E-03
   267  2.6600000000000E+00 -1.1839126645302E-04 -9.8202864890195E-04
   268  2.6700000000000E+00 -8.1298914635179E-05 -7.0512887205258E-04
   269  2.6800000000000E+00 -5.4155493880889E-05 -4.9282261772827E-04
   270  2.6900000000000E+00 -3.5012261741748E-05 -3.3447459986045E-04
   271  2.7000000000000E+00 -2.2124805074256E-05 -2.2031499524327E-04
   272  2.7100000000000E+00 -1.3923491531023E-05 -1.4124823635623E-04
   273  2.7200000000000E+00 -9.1397822282279E-06 -8.9643544063691E-05
   274  2.7300000000000E+00 -6.7241473403800E-06 -5.8824595350080E-05
   275  2.7400000000000E+00 -5.8630519707957E-06 -4.3306895530306E-05
   276  2.7500000000000E+00 -5.7928047232096E-06 -3.7415224300312E-05
   277  2.7600000000000E+00 -5.7303391676552E-06 -3.4846962894334E-05
   278  2.7700000000000E+00 -5.1507472691955E-06 -3.0955194510650E-05
   279  2.7800000000000E+00 -3.6597942723697E-06 -2.1926935496348E-05
   280  2.7900000000000E+00 -1.8680535374715E-06 -1.1237878342139E-05
   281  2.8000000000000E+00 -2.2955064683351E-07 -1.3901921044142E-06
   282  2.8100000000000E+00  4.9097105979480E-07  2.8747639937086E-06
   283  2.8200000000000E+00  5.4895237181827E-07  3.2121579306127E-06
   284  2.8300000000000E+00  2.2757860255460E-07  1.3315543674593E-06
   285  2.8400000000000E+00 -6.2778461875794E-08 -3.6197750478937E-07
   286  2.8500000000000E+00 -1.2488929152733E-07 -7.1865987528607E-07
   287  2.8600000000000E+00 -8.7903215773689E-08 -5.0496595274299E-07
   288  2.8700000000000E+00  1.1073279351715E-09  6.6658371051487E-09
   289  2.8800000000000E+00  1.3198551155638E-08  7.9451975546729E-08
   290  2.8900000000000E+00  1.3978185484603E-08  8.4145179134750E-08
   291  2.9000000000000E+00  4.7894265736766E-09  2.8831149610846E-08
   292  2.9100000000000E+00  0.0000000000000E+00  0.0000000000000E+00
   293  2.9200000000000E+00  0.0000000000000E+00  0.0000000000000E+00
   294  2.9300000000000E+00  0.0000000000000E+00  0.0000000000000E+00
   295  2.9400000000000E+00  0.0000000000000E+00  0.0000000000000E+00
   296  2.9500000000000E+00  0.0000000000000E+00  0.0000000000000E+00
   297  2.9600000000000E+00  0.0000000000000E+00  0.0000000000000E+00
   298  2.9700000000000E+00  0.0000000000000E+00  0.0000000000000E+00
   299  2.9800000000000E+00  0.0000000000000E+00  0.0000000000000E+00
   300  2.9900000000000E+00  0.0000000000000E+00  0.0000000000000E+00
   301  3.0000000000000E+00  0.0000000000000E+00  0.0000000000000E+00
   302  3.0100000000000E+00  0.0000000000000E+00  0.0000000000000E+00
   303  3.0200000000000E+00  0.0000000000000E+00  0.0000000000000E+00
   304  3.0300000000000E+00  0.0000000000000E+00  0.0000000000000E+00
   305  3.0400000000000E+00  0.0000000000000E+00  0.0000000000000E+00
   306  3.0500000000000E+00  0.0000000000000E+00  0.0000000000000E+00
   307  3.0600000000000E+00  0.0000000000000E+00  0.0000000000000E+00
   308  3.0700000000000E+00  0.0000000000000E+00  0.0000000000000E+00
   309  3.0800000000000E+00  0.0000000000000E+00  0.0000000000000E+00
   310  3.0900000000000E+00  0.0000000000000E+00  0.0000000000000E+00
   311  3.1000000000000E+00  0.0000000000000E+00  0.0000000000000E+00
   312  3.1100000000000E+00  0.0000000000000E+00  0.0000000000000E+00
   313  3.1200000000000E+00  0.0000000000000E+00  0.0000000000000E+00
   314  3.1300000000000E+00  0.0000000000000E+00  0.0000000000000E+00
   315  3.1400000000000E+00  0.0000000000000E+00  0.0000000000000E+00
   316  3.1500000000000E+00  0.0000000000000E+00  0.0000000000000E+00
   317  3.1600000000000E+00  0.0000000000000E+00  0.0000000000000E+00
   318  3.1700000000000E+00  0.0000000000000E+00  0.0000000000000E+00
   319  3.1800000000000E+00  0.0000000000000E+00  0.0000000000000E+00
   320  3.1900000000000E+00  0.0000000000000E+00  0.0000000000000E+00
   321  3.2000000000000E+00  0.0000000000000E+00  0.0000000000000E+00
   322  3.2100000000000E+00  0.0000000000000E+00  0.0000000000000E+00
   323  3.2200000000000E+00  0.0000000000000E+00  0.0000000000000E+00
   324  3.2300000000000E+00  0.0000000000000E+00  0.0000000000000E+00
   325  3.2400000000000E+00  0.0000000000000E+00  0.0000000000000E+00
   326  3.2500000000000E+00  0.0000000000000E+00  0.0000000000000E+00
   327  3.2600000000000E+00  0.0000000000000E+00  0.0000000000000E+00
   328  3.2700000000000E+00  0.0000000000000E+00  0.0000000000000E+00
   329  3.2800000000000E+00  0.0000000000000E+00  0.0000000000000E+00
   330  3.2900000000000E+00  0.0000000000000E+00  0.0000000000000E+00
   331  3.3000000000000E+00  0.0000000000000E+00  0.0000000000000E+00
   332  3.3100000000000E+00  0.0000000000000E+00  0.0000000000000E+00
   333  3.3200000000000E+00  0.0000000000000E+00  0.0000000000000E+00
   334  3.3300000000000E+00  0.0000000000000E+00  0.0000000000000E+00
   335  3.3400000000000E+00  0.0000000000000E+00  0.0000000000000E+00
   336  3.3500000000000E+00  0.0000000000000E+00  0.0000000000000E+00
   337  3.3600000000000E+00  0.0000000000000E+00  0.0000000000000E+00
   338  3.3700000000000E+00  0.0000000000000E+00  0.0000000000000E+00
   339  3.3800000000000E+00  0.0000000000000E+00  0.0000000000000E+00
   340  3.3900000000000E+00  0.0000000000000E+00  0.0000000000000E+00
   341  3.4000000000000E+00  0.0000000000000E+00  0.0000000000000E+00
   342  3.4100000000000E+00  0.0000000000000E+00  0.0000000000000E+00
   343  3.4200000000000E+00  0.0000000000000E+00  0.0000000000000E+00
   344  3.4300000000000E+00  0.0000000000000E+00  0.0000000000000E+00
   345  3.4400000000000E+00  0.0000000000000E+00  0.0000000000000E+00
   346  3.4500000000000E+00  0.0000000000000E+00  0.0000000000000E+00
   347  3.4600000000000E+00  0.0000000000000E+00  0.0000000000000E+00
   348  3.4700000000000E+00  0.0000000000000E+00  0.0000000000000E+00
   349  3.4800000000000E+00  0.0000000000000E+00  0.0000000000000E+00
   350  3.4900000000000E+00  0.0000000000000E+00  0.0000000000000E+00
   351  3.5000000000000E+00  0.0000000000000E+00  0.0000000000000E+00
   352  3.5100000000000E+00  0.0000000000000E+00  0.0000000000000E+00
   353  3.5200000000000E+00  0.0000000000000E+00  0.0000000000000E+00
   354  3.5300000000000E+00  0.0000000000000E+00  0.0000000000000E+00
   355  3.5400000000000E+00  0.0000000000000E+00  0.0000000000000E+00
   356  3.5500000000000E+00  0.0000000000000E+00  0.0000000000000E+00
   357  3.5600000000000E+00  0.0000000000000E+00  0.0000000000000E+00
   358  3.5700000000000E+00  0.0000000000000E+00  0.0000000000000E+00
   359  3.5800000000000E+00  0.0000000000000E+00  0.0000000000000E+00
   360  3.5900000000000E+00  0.0000000000000E+00  0.0000000000000E+00
   361  3.6000000000000E+00  0.0000000000000E+00  0.0000000000000E+00
   362  3.6100000000000E+00  0.0000000000000E+00  0.0000000000000E+00
   363  3.6200000000000E+00  0.0000000000000E+00  0.0000000000000E+00
   364  3.6300000000000E+00  0.0000000000000E+00  0.0000000000000E+00
   365  3.6400000000000E+00  0.0000000000000E+00  0.0000000000000E+00
   366  3.6500000000000E+00  0.0000000000000E+00  0.0000000000000E+00
   367  3.6600000000000E+00  0.0000000000000E+00  0.0000000000000E+00
   368  3.6700000000000E+00  0.0000000000000E+00  0.0000000000000E+00
   369  3.6800000000000E+00  0.0000000000000E+00  0.0000000000000E+00
   370  3.6900000000000E+00  0.0000000000000E+00  0.0000000000000E+00
   371  3.7000000000000E+00  0.0000000000000E+00  0.0000000000000E+00
   372  3.7100000000000E+00  0.0000000000000E+00  0.0000000000000E+00
   373  3.7200000000000E+00  0.0000000000000E+00  0.0000000000000E+00
   374  3.7300000000000E+00  0.0000000000000E+00  0.0000000000000E+00
   375  3.7400000000000E+00  0.0000000000000E+00  0.0000000000000E+00
   376  3.7500000000000E+00  0.0000000000000E+00  0.0000000000000E+00
   377  3.7600000000000E+00  0.0000000000000E+00  0.0000000000000E+00
   378  3.7700000000000E+00  0.0000000000000E+00  0.0000000000000E+00
   379  3.7800000000000E+00  0.0000000000000E+00  0.0000000000000E+00
   380  3.7900000000000E+00  0.0000000000000E+00  0.0000000000000E+00
   381  3.8000000000000E+00  0.0000000000000E+00  0.0000000000000E+00
   382  3.8100000000000E+00  0.0000000000000E+00  0.0000000000000E+00
   383  3.8200000000000E+00  0.0000000000000E+00  0.0000000000000E+00
   384  3.8300000000000E+00  0.0000000000000E+00  0.0000000000000E+00
   385  3.8400000000000E+00  0.0000000000000E+00  0.0000000000000E+00
   386  3.8500000000000E+00  0.0000000000000E+00  0.0000000000000E+00
   387  3.8600000000000E+00  0.0000000000000E+00  0.0000000000000E+00
   388  3.8700000000000E+00  0.0000000000000E+00  0.0000000000000E+00
   389  3.8800000000000E+00  0.0000000000000E+00  0.0000000000000E+00
   390  3.8900000000000E+00  0.0000000000000E+00  0.0000000000000E+00
   391  3.9000000000000E+00  0.0000000000000E+00  0.0000000000000E+00
   392  3.9100000000000E+00  0.0000000000000E+00  0.0000000000000E+00
   393  3.9200000000000E+00  0.0000000000000E+00  0.0000000000000E+00
   394  3.9300000000000E+00  0.0000000000000E+00  0.0000000000000E+00
   395  3.9400000000000E+00  0.0000000000000E+00  0.0000000000000E+00
   396  3.9500000000000E+00  0.0000000000000E+00  0.0000000000000E+00
   397  3.9600000000000E+00  0.0000000000000E+00  0.0000000000000E+00
   398  3.9700000000000E+00  0.0000000000000E+00  0.0000000000000E+00
   399  3.9800000000000E+00  0.0000000000000E+00  0.0000000000000E+00
   400  3.9900000000000E+00  0.0000000000000E+00  0.0000000000000E+00
   401  4.0000000000000E+00  0.0000000000000E+00  0.0000000000000E+00
   402  4.0100000000000E+00  0.0000000000000E+00  0.0000000000000E+00
   403  4.0200000000000E+00  0.0000000000000E+00  0.0000000000000E+00
   404  4.0300000000000E+00  0.0000000000000E+00  0.0000000000000E+00
   405  4.0400000000000E+00  0.0000000000000E+00  0.0000000000000E+00
   406  4.0500000000000E+00  0.0000000000000E+00  0.0000000000000E+00
   407  4.0600000000000E+00  0.0000000000000E+00  0.0000000000000E+00
   408  4.0700000000000E+00  0.0000000000000E+00  0.0000000000000E+00
   409  4.0800000000000E+00  0.0000000000000E+00  0.0000000000000E+00
   410  4.0900000000000E+00  0.0000000000000E+00  0.0000000000000E+00
   411  4.1000000000000E+00  0.0000000000000E+00  0.0000000000000E+00
   412  4.1100000000000E+00  0.0000000000000E+00  0.0000000000000E+00
   413  4.1200000000000E+00  0.0000000000000E+00  0.0000000000000E+00
   414  4.1300000000000E+00  0.0000000000000E+00  0.0000000000000E+00
   415  4.1400000000000E+00  0.0000000000000E+00  0.0000000000000E+00
   416  4.1500000000000E+00  0.0000000000000E+00  0.0000000000000E+00
   417  4.1600000000000E+00  0.0000000000000E+00  0.0000000000000E+00
   418  4.1700000000000E+00  0.0000000000000E+00  0.0000000000000E+00
   419  4.1800000000000E+00  0.0000000000000E+00  0.0000000000000E+00
   420  4.1900000000000E+00  0.0000000000000E+00  0.0000000000000E+00
   421  4.2000000000000E+00  0.0000000000000E+00  0.0000000000000E+00
   422  4.2100000000000E+00  0.0000000000000E+00  0.0000000000000E+00
   423  4.2200000000000E+00  0.0000000000000E+00  0.0000000000000E+00