C     ONCVPSP-4.0.1  r_core=   1.42727   1.39353
      6.0000      4.0000      191023    zatom,zion,pspd
     8       2   1     4   600     0    pspcod,pspxc,lmax,lloc,mmax,r2well
  5.99000000  0.00000000  0.00000000    rchrg fchrg qchrg
     2     2     0     0     0    nproj
     1     1           extension_switch
   0                         8.1302824913405E+00  9.0835387171729E-01
     1  0.0000000000000E+00  5.2838064479310E-09 -2.1022592361364E-08
     2  1.0000000000000E-02  5.1228774022581E-02  3.7997739296371E-02
     3  2.0000000000000E-02  1.0261260850515E-01  7.4978906335187E-02
     4  3.0000000000000E-02  1.5430213046697E-01  1.0994570705351E-01
     5  4.0000000000000E-02  2.0643917932818E-01  1.4193758226334E-01
     6  5.0000000000000E-02  2.5915260993577E-01  1.7004902679097E-01
     7  6.0000000000000E-02  3.1255432793842E-01  1.9344646593001E-01
     8  7.0000000000000E-02  3.6673562862936E-01  2.1138390015228E-01
     9  8.0000000000000E-02  4.2176390509251E-01  2.2321705004304E-01
    10  9.0000000000000E-02  4.7767978505748E-01  2.2841575902344E-01
    11  1.0000000000000E-01  5.3449474840653E-01  2.2657444115536E-01
    12  1.1000000000000E-01  5.9218926891067E-01  2.1742039468329E-01
    13  1.2000000000000E-01  6.5071151465018E-01  2.0081983838378E-01
    14  1.3000000000000E-01  7.0997663185609E-01  1.7678156664105E-01
    15  1.4000000000000E-01  7.6986662676378E-01  1.4545815978075E-01
    16  1.5000000000000E-01  8.3023084967638E-01  1.0714472787734E-01
    17  1.6000000000000E-01  8.9088707497562E-01  6.2275208285104E-02
    18  1.7000000000000E-01  9.5162316047572E-01  1.1416278808555E-02
    19  1.8000000000000E-01  1.0121992594725E+00 -4.4741010994711E-02
    20  1.9000000000000E-01  1.0723505492736E+00 -1.0539174909490E-01
    21  2.0000000000000E-01  1.1317904310715E+00 -1.6962963323595E-01
    22  2.1000000000000E-01  1.1902141479023E+00 -2.3646119527636E-01
    23  2.2000000000000E-01  1.2473027602514E+00 -3.0482153716038E-01
    24  2.3000000000000E-01  1.3027274127659E+00 -3.7359131263114E-01
    25  2.4000000000000E-01  1.3561538205995E+00 -4.4161466797980E-01
    26  2.5000000000000E-01  1.4072469002537E+00 -5.0771783927691E-01
    27  2.6000000000000E-01  1.4556754674384E+00 -5.7072809292387E-01
    28  2.7000000000000E-01  1.5011169235080E+00 -6.2949269117538E-01
    29  2.8000000000000E-01  1.5432618524378E+00 -6.8289756460420E-01
    30  2.9000000000000E-01  1.5818184520908E+00 -7.2988537929653E-01
    31  3.0000000000000E-01  1.6165167266495E+00 -7.6947269777003E-01
    32  3.1000000000000E-01  1.6471123714874E+00 -8.0076594899544E-01
    33  3.2000000000000E-01  1.6733902873529E+00 -8.2297594417813E-01
    34  3.3000000000000E-01  1.6951676674305E+00 -8.3543070073790E-01
    35  3.4000000000000E-01  1.7122966085047E+00 -8.3758636674687E-01
    36  3.5000000000000E-01  1.7246662059356E+00 -8.2903607141288E-01
    37  3.6000000000000E-01  1.7322041013139E+00 -8.0951656342999E-01
    38  3.7000000000000E-01  1.7348774613160E+00 -7.7891253750577E-01
    39  3.8000000000000E-01  1.7326933762607E+00 -7.3725858942924E-01
    40  3.9000000000000E-01  1.7256986769809E+00 -6.8473878094050E-01
    41  4.0000000000000E-01  1.7139791786910E+00 -6.2168383667184E-01
    42  4.1000000000000E-01  1.6976583703611E+00 -5.4856603581658E-01
    43  4.2000000000000E-01  1.6768955775248E+00 -4.6599190021944E-01
    44  4.3000000000000E-01  1.6518836352743E+00 -3.7469281758049E-01
    45  4.4000000000000E-01  1.6228461162756E+00 -2.7551377276093E-01
    46  4.5000000000000E-01  1.5900341658218E+00 -1.6940039117112E-01
    47  4.6000000000000E-01  1.5537230020978E+00 -5.7384525364001E-02
    48  4.7000000000000E-01  1.5142081448638E+00  5.9431361217395E-02
    49  4.8000000000000E-01  1.4718014395653E+00  1.7989074127139E-01
    50  4.9000000000000E-01  1.4268269464105E+00  3.0280021626539E-01
    51  5.0000000000000E-01  1.3796167651589E+00  4.2694706156896E-01
    52  5.1000000000000E-01  1.3305068662429E+00  5.5111682840351E-01
    53  5.2000000000000E-01  1.2798329974060E+00  6.7411070963429E-01
    54  5.3000000000000E-01  1.2279267323240E+00  7.9476238436008E-01
    55  5.4000000000000E-01  1.1751117237534E+00  9.1195406920172E-01
    56  5.5000000000000E-01  1.1217002187053E+00  1.0246315218610E+00
    57  5.6000000000000E-01  1.0679898870885E+00  1.1318177645348E+00
    58  5.7000000000000E-01  1.0142610083344E+00  1.2326253206591E+00
    59  5.8000000000000E-01  9.6077405285417E-01  1.3262667876971E+00
    60  5.9000000000000E-01  9.0776768694835E-01  1.4120636006618E+00
    61  6.0000000000000E-01  8.5545722116298E-01  1.4894528751520E+00
    62  6.1000000000000E-01  8.0403351324664E-01  1.5579922541764E+00
    63  6.2000000000000E-01  7.5366232798778E-01  1.6173627192550E+00
    64  6.3000000000000E-01  7.0448414748850E-01  1.6673693625004E+00
    65  6.4000000000000E-01  6.5661441703524E-01  1.7079401518811E+00
    66  6.5000000000000E-01  6.1014420383003E-01  1.7391227559823E+00
    67  6.6000000000000E-01  5.6514123860663E-01  1.7610795266385E+00
    68  6.7000000000000E-01  5.2165130371816E-01  1.7740807672174E+00
    69  6.8000000000000E-01  4.7969992577275E-01  1.7784964405499E+00
    70  6.9000000000000E-01  4.3929432641690E-01  1.7747864930282E+00
    71  7.0000000000000E-01  4.0042558150658E-01  1.7634899898666E+00
    72  7.1000000000000E-01  3.6307093672075E-01  1.7452132705983E+00
    73  7.2000000000000E-01  3.2719622669583E-01  1.7206173433826E+00
    74  7.3000000000000E-01  2.9275834499872E-01  1.6904047414718E+00
    75  7.4000000000000E-01  2.5970771369141E-01  1.6553060652407E+00
    76  7.5000000000000E-01  2.2799070382756E-01  1.6160664285764E+00
    77  7.6000000000000E-01  1.9755196189084E-01  1.5734320193486E+00
    78  7.7000000000000E-01  1.6833660184432E-01  1.5281369703801E+00
    79  7.8000000000000E-01  1.4029222799639E-01  1.4808907201865E+00
    80  7.9000000000000E-01  1.1337076017054E-01  1.4323660221592E+00
    81  8.0000000000000E-01  8.7530039546343E-02  1.3831877373304E+00
    82  8.1000000000000E-01  6.2735200856513E-02  1.3339225198338E+00
    83  8.2000000000000E-01  3.8959804328298E-02  1.2850694802811E+00
    84  8.3000000000000E-01  1.6186733062253E-02  1.2370520621623E+00
    85  8.4000000000000E-01 -5.5910312410218E-03  1.1902176715679E+00
    86  8.5000000000000E-01 -2.6370094906043E-02  1.1448470775761E+00
    87  8.6000000000000E-01 -4.6137245891575E-02  1.1011567222886E+00
    88  8.7000000000000E-01 -6.4870445426428E-02  1.0592997800090E+00
    89  8.8000000000000E-01 -8.2540073322698E-02  1.0193684550934E+00
    90  8.9000000000000E-01 -9.9110389785156E-02  9.8139742675472E-01
    91  9.0000000000000E-01 -1.1454117283616E-01  9.4536831642261E-01
    92  9.1000000000000E-01 -1.2878948717505E-01  9.1121503685552E-01
    93  9.2000000000000E-01 -1.4181153804939E-01  8.7882986849314E-01
    94  9.3000000000000E-01 -1.5356456253226E-01  8.4807009849784E-01
    95  9.4000000000000E-01 -1.6400871048870E-01  8.1876505168773E-01
    96  9.5000000000000E-01 -1.7310886846394E-01  7.9072334015534E-01
    97  9.6000000000000E-01 -1.8083638170444E-01  7.6374015975418E-01
    98  9.7000000000000E-01 -1.8717063247374E-01  7.3760446670335E-01
    99  9.8000000000000E-01 -1.9210043667319E-01  7.1210587610724E-01
   100  9.9000000000000E-01 -1.9562522543038E-01  6.8704113595716E-01
   101  1.0000000000000E+00 -1.9775598366242E-01  6.6222004483425E-01
   102  1.0100000000000E+00 -1.9851592353299E-01  6.3747069868662E-01
   103  1.0200000000000E+00 -1.9794087706638E-01  6.1264397127489E-01
   104  1.0300000000000E+00 -1.9607939881612E-01  5.8761715371054E-01
   105  1.0400000000000E+00 -1.9299257625508E-01  5.6229670042970E-01
   106  1.0500000000000E+00 -1.8875355231412E-01  5.3662005146592E-01
   107  1.0600000000000E+00 -1.8344677109984E-01  5.1055652350204E-01
   108  1.0700000000000E+00 -1.7716696410913E-01  4.8410728433018E-01
   109  1.0800000000000E+00 -1.7001790011851E-01  4.5730444663914E-01
   110  1.0900000000000E+00 -1.6211092720676E-01  4.3020933692191E-01
   111  1.1000000000000E+00 -1.5356333997499E-01  4.0291001339336E-01
   112  1.1100000000000E+00 -1.4449660885967E-01  3.7551812275534E-01
   113  1.1200000000000E+00 -1.3503451140135E-01  3.4816519906775E-01
   114  1.1300000000000E+00 -1.2530120739286E-01  3.2099851871763E-01
   115  1.1400000000000E+00 -1.1541930092842E-01  2.9417663322229E-01
   116  1.1500000000000E+00 -1.0550793250215E-01  2.6786470633344E-01
   117  1.1600000000000E+00 -9.5680943464975E-02  2.4222978350727E-01
   118  1.1700000000000E+00 -8.6045153351303E-02  2.1743612031260E-01
   119  1.1800000000000E+00 -7.6698787907272E-02  1.9364069188119E-01
   120  1.1900000000000E+00 -6.7730092113849E-02  1.7098899815169E-01
   121  1.2000000000000E+00 -5.9216158224881E-02  1.4961126971927E-01
   122  1.2100000000000E+00 -5.1221993905249E-02  1.2961916680431E-01
   123  1.2200000000000E+00 -4.3799850060539E-02  1.1110304948412E-01
   124  1.2300000000000E+00 -3.6988822081990E-02  9.4129881432011E-02
   125  1.2400000000000E+00 -3.0814732012637E-02  7.8741812077442E-02
   126  1.2500000000000E+00 -2.5290292835250E-02  6.4955464111140E-02
   127  1.2600000000000E+00 -2.0415549742413E-02  5.2761934805712E-02
   128  1.2700000000000E+00 -1.6178587031673E-02  4.2127501190058E-02
   129  1.2800000000000E+00 -1.2556483358549E-02  3.2995001287806E-02
   130  1.2900000000000E+00 -9.5164925423559E-03  2.5285846631937E-02
   131  1.3000000000000E+00 -7.0174221113177E-03  1.8902605598759E-02
   132  1.3100000000000E+00 -5.0111774131011E-03  1.3732083160031E-02
   133  1.3200000000000E+00 -3.4444354728593E-03  9.6488106671842E-03
   134  1.3300000000000E+00 -2.2604107401203E-03  6.5188529226115E-03
   135  1.3400000000000E+00 -1.4006613728718E-03  4.2037842489349E-03
   136  1.3500000000000E+00 -8.0695331240454E-04  2.5649698297354E-03
   137  1.3600000000000E+00 -4.2244330220875E-04  1.4651228881299E-03
   138  1.3700000000000E+00 -1.9137801621356E-04  7.6349823845427E-04
   139  1.3800000000000E+00 -6.8161882400277E-05  3.5123260693861E-04
   140  1.3900000000000E+00 -1.4351792415016E-05  1.3654765741481E-04
   141  1.4000000000000E+00  1.2983373257186E-06  4.2550277214647E-05
   142  1.4100000000000E+00  1.6093971560355E-06  1.0380811043870E-05
   143  1.4200000000000E+00  2.5699286887254E-08  1.6828229704222E-06
   144  1.4300000000000E+00  2.3105875675253E-08 -1.3774714417721E-07
   145  1.4400000000000E+00 -2.0998240552682E-09  3.3958940350867E-08
   146  1.45 -0. -0.
   147  1.46 -0.  0.
   148  1.47  0.  0.
   149  1.48  0.  0.
   150  1.49  0.  0.
   151  1.50  0.  0.
   152  1.51  0.  0.
   153  1.52  0.  0.
   154  1.53  0.  0.
   155  1.54  0.  0.
   156  1.55  0.  0.
   157  1.56  0.  0.
   158  1.57  0.  0.
   159  1.58  0.  0.
   160  1.59  0.  0.
   161  1.60  0.  0.
   162  1.61  0.  0.
   163  1.62  0.  0.
   164  1.63  0.  0.
   165  1.64  0.  0.
   166  1.65  0.  0.
   167  1.66  0.  0.
   168  1.67  0.  0.
   169  1.68  0.  0.
   170  1.69  0.  0.
   171  1.70  0.  0.
   172  1.71  0.  0.
   173  1.72  0.  0.
   174  1.73  0.  0.
   175  1.74  0.  0.
   176  1.75  0.  0.
   177  1.76  0.  0.
   178  1.77  0.  0.
   179  1.78  0.  0.
   180  1.79  0.  0.
   181  1.80  0.  0.
   182  1.81  0.  0.
   183  1.82  0.  0.
   184  1.83  0.  0.
   185  1.84  0.  0.
   186  1.85  0.  0.
   187  1.86  0.  0.
   188  1.87  0.  0.
   189  1.88  0.  0.
   190  1.89  0.  0.
   191  1.90  0.  0.
   192  1.91  0.  0.
   193  1.92  0.  0.
   194  1.93  0.  0.
   195  1.94  0.  0.
   196  1.95  0.  0.
   197  1.96  0.  0.
   198  1.97  0.  0.
   199  1.98  0.  0.
   200  1.99  0.  0.
   201  2.00  0.  0.
   202  2.01  0.  0.
   203  2.02  0.  0.
   204  2.03  0.  0.
   205  2.04  0.  0.
   206  2.05  0.  0.
   207  2.06  0.  0.
   208  2.07  0.  0.
   209  2.08  0.  0.
   210  2.09  0.  0.
   211  2.10  0.  0.
   212  2.11  0.  0.
   213  2.12  0.  0.
   214  2.13  0.  0.
   215  2.14  0.  0.
   216  2.15  0.  0.
   217  2.16  0.  0.
   218  2.17  0.  0.
   219  2.18  0.  0.
   220  2.19  0.  0.
   221  2.20  0.  0.
   222  2.21  0.  0.
   223  2.22  0.  0.
   224  2.23  0.  0.
   225  2.24  0.  0.
   226  2.25  0.  0.
   227  2.26  0.  0.
   228  2.27  0.  0.
   229  2.28  0.  0.
   230  2.29  0.  0.
   231  2.30  0.  0.
   232  2.31  0.  0.
   233  2.32  0.  0.
   234  2.33  0.  0.
   235  2.34  0.  0.
   236  2.35  0.  0.
   237  2.36  0.  0.
   238  2.37  0.  0.
   239  2.38  0.  0.
   240  2.39  0.  0.
   241  2.40  0.  0.
   242  2.41  0.  0.
   243  2.42  0.  0.
   244  2.43  0.  0.
   245  2.44  0.  0.
   246  2.45  0.  0.
   247  2.46  0.  0.
   248  2.47  0.  0.
   249  2.48  0.  0.
   250  2.49  0.  0.
   251  2.50  0.  0.
   252  2.51  0.  0.
   253  2.52  0.  0.
   254  2.53  0.  0.
   255  2.54  0.  0.
   256  2.55  0.  0.
   257  2.56  0.  0.
   258  2.57  0.  0.
   259  2.58  0.  0.
   260  2.59  0.  0.
   261  2.60  0.  0.
   262  2.61  0.  0.
   263  2.62  0.  0.
   264  2.63  0.  0.
   265  2.64  0.  0.
   266  2.65  0.  0.
   267  2.66  0.  0.
   268  2.67  0.  0.
   269  2.68  0.  0.
   270  2.69  0.  0.
   271  2.70  0.  0.
   272  2.71  0.  0.
   273  2.72  0.  0.
   274  2.73  0.  0.
   275  2.74  0.  0.
   276  2.75  0.  0.
   277  2.76  0.  0.
   278  2.77  0.  0.
   279  2.78  0.  0.
   280  2.79  0.  0.
   281  2.80  0.  0.
   282  2.81  0.  0.
   283  2.82  0.  0.
   284  2.83  0.  0.
   285  2.84  0.  0.
   286  2.85  0.  0.
   287  2.86  0.  0.
   288  2.87  0.  0.
   289  2.88  0.  0.
   290  2.89  0.  0.
   291  2.90  0.  0.
   292  2.91  0.  0.
   293  2.92  0.  0.
   294  2.93  0.  0.
   295  2.94  0.  0.
   296  2.95  0.  0.
   297  2.96  0.  0.
   298  2.97  0.  0.
   299  2.98  0.  0.
   300  2.99  0.  0.
   301  3.00  0.  0.
   302  3.01  0.  0.
   303  3.02  0.  0.
   304  3.03  0.  0.
   305  3.04  0.  0.
   306  3.05  0.  0.
   307  3.06  0.  0.
   308  3.07  0.  0.
   309  3.08  0.  0.
   310  3.09  0.  0.
   311  3.10  0.  0.
   312  3.11  0.  0.
   313  3.12  0.  0.
   314  3.13  0.  0.
   315  3.14  0.  0.
   316  3.15  0.  0.
   317  3.16  0.  0.
   318  3.17  0.  0.
   319  3.18  0.  0.
   320  3.19  0.  0.
   321  3.20  0.  0.
   322  3.21  0.  0.
   323  3.22  0.  0.
   324  3.23  0.  0.
   325  3.24  0.  0.
   326  3.25  0.  0.
   327  3.26  0.  0.
   328  3.27  0.  0.
   329  3.28  0.  0.
   330  3.29  0.  0.
   331  3.30  0.  0.
   332  3.31  0.  0.
   333  3.32  0.  0.
   334  3.33  0.  0.
   335  3.34  0.  0.
   336  3.35  0.  0.
   337  3.36  0.  0.
   338  3.37  0.  0.
   339  3.38  0.  0.
   340  3.39  0.  0.
   341  3.40  0.  0.
   342  3.41  0.  0.
   343  3.42  0.  0.
   344  3.43  0.  0.
   345  3.44  0.  0.
   346  3.45  0.  0.
   347  3.46  0.  0.
   348  3.47  0.  0.
   349  3.48  0.  0.
   350  3.49  0.  0.
   351  3.50  0.  0.
   352  3.51  0.  0.
   353  3.52  0.  0.
   354  3.53  0.  0.
   355  3.54  0.  0.
   356  3.55  0.  0.
   357  3.56  0.  0.
   358  3.57  0.  0.
   359  3.58  0.  0.
   360  3.59  0.  0.
   361  3.60  0.  0.
   362  3.61  0.  0.
   363  3.62  0.  0.
   364  3.63  0.  0.
   365  3.64  0.  0.
   366  3.65  0.  0.
   367  3.66  0.  0.
   368  3.67  0.  0.
   369  3.68  0.  0.
   370  3.69  0.  0.
   371  3.70  0.  0.
   372  3.71  0.  0.
   373  3.72  0.  0.
   374  3.73  0.  0.
   375  3.74  0.  0.
   376  3.75  0.  0.
   377  3.76  0.  0.
   378  3.77  0.  0.
   379  3.78  0.  0.
   380  3.79  0.  0.
   381  3.80  0.  0.
   382  3.81  0.  0.
   383  3.82  0.  0.
   384  3.83  0.  0.
   385  3.84  0.  0.
   386  3.85  0.  0.
   387  3.86  0.  0.
   388  3.87  0.  0.
   389  3.88  0.  0.
   390  3.89  0.  0.
   391  3.90  0.  0.
   392  3.91  0.  0.
   393  3.92  0.  0.
   394  3.93  0.  0.
   395  3.94  0.  0.
   396  3.95  0.  0.
   397  3.96  0.  0.
   398  3.97  0.  0.
   399  3.98  0.  0.
   400  3.99  0.  0.
   401  4.00  0.  0.
   402  4.01  0.  0.
   403  4.02  0.  0.
   404  4.03  0.  0.
   405  4.04  0.  0.
   406  4.05  0.  0.
   407  4.06  0.  0.
   408  4.07  0.  0.
   409  4.08  0.  0.
   410  4.09  0.  0.
   411  4.10  0.  0.
   412  4.11  0.  0.
   413  4.12  0.  0.
   414  4.13  0.  0.
   415  4.14  0.  0.
   416  4.15  0.  0.
   417  4.16  0.  0.
   418  4.17  0.  0.
   419  4.18  0.  0.
   420  4.19  0.  0.
   421  4.20  0.  0.
   422  4.21  0.  0.
   423  4.22  0.  0.
   424  4.23  0.  0.
   425  4.24  0.  0.
   426  4.25  0.  0.
   427  4.26  0.  0.
   428  4.27  0.  0.
   429  4.28  0.  0.
   430  4.29  0.  0.
   431  4.30  0.  0.
   432  4.31  0.  0.
   433  4.32  0.  0.
   434  4.33  0.  0.
   435  4.34  0.  0.
   436  4.35  0.  0.
   437  4.36  0.  0.
   438  4.37  0.  0.
   439  4.38  0.  0.
   440  4.39  0.  0.
   441  4.40  0.  0.
   442  4.41  0.  0.
   443  4.42  0.  0.
   444  4.43  0.  0.
   445  4.44  0.  0.
   446  4.45  0.  0.
   447  4.46  0.  0.
   448  4.47  0.  0.
   449  4.48  0.  0.
   450  4.49  0.  0.
   451  4.50  0.  0.
   452  4.51  0.  0.
   453  4.52  0.  0.
   454  4.53  0.  0.
   455  4.54  0.  0.
   456  4.55  0.  0.
   457  4.56  0.  0.
   458  4.57  0.  0.
   459  4.58  0.  0.
   460  4.59  0.  0.
   461  4.60  0.  0.
   462  4.61  0.  0.
   463  4.62  0.  0.
   464  4.63  0.  0.
   465  4.64  0.  0.
   466  4.65  0.  0.
   467  4.66  0.  0.
   468  4.67  0.  0.
   469  4.68  0.  0.
   470  4.69  0.  0.
   471  4.70  0.  0.
   472  4.71  0.  0.
   473  4.72  0.  0.
   474  4.73  0.  0.
   475  4.74  0.  0.
   476  4.75  0.  0.
   477  4.76  0.  0.
   478  4.77  0.  0.
   479  4.78  0.  0.
   480  4.79  0.  0.
   481  4.80  0.  0.
   482  4.81  0.  0.
   483  4.82  0.  0.
   484  4.83  0.  0.
   485  4.84  0.  0.
   486  4.85  0.  0.
   487  4.86  0.  0.
   488  4.87  0.  0.
   489  4.88  0.  0.
   490  4.89  0.  0.
   491  4.90  0.  0.
   492  4.91  0.  0.
   493  4.92  0.  0.
   494  4.93  0.  0.
   495  4.94  0.  0.
   496  4.95  0.  0.
   497  4.96  0.  0.
   498  4.97  0.  0.
   499  4.98  0.  0.
   500  4.99  0.  0.
   501  5.00  0.  0.
   502  5.01  0.  0.
   503  5.02  0.  0.
   504  5.03  0.  0.
   505  5.04  0.  0.
   506  5.05  0.  0.
   507  5.06  0.  0.
   508  5.07  0.  0.
   509  5.08  0.  0.
   510  5.09  0.  0.
   511  5.10  0.  0.
   512  5.11  0.  0.
   513  5.12  0.  0.
   514  5.13  0.  0.
   515  5.14  0.  0.
   516  5.15  0.  0.
   517  5.16  0.  0.
   518  5.17  0.  0.
   519  5.18  0.  0.
   520  5.19  0.  0.
   521  5.20  0.  0.
   522  5.21  0.  0.
   523  5.22  0.  0.
   524  5.23  0.  0.
   525  5.24  0.  0.
   526  5.25  0.  0.
   527  5.26  0.  0.
   528  5.27  0.  0.
   529  5.28  0.  0.
   530  5.29  0.  0.
   531  5.30  0.  0.
   532  5.31  0.  0.
   533  5.32  0.  0.
   534  5.33  0.  0.
   535  5.34  0.  0.
   536  5.35  0.  0.
   537  5.36  0.  0.
   538  5.37  0.  0.
   539  5.38  0.  0.
   540  5.39  0.  0.
   541  5.40  0.  0.
   542  5.41  0.  0.
   543  5.42  0.  0.
   544  5.43  0.  0.
   545  5.44  0.  0.
   546  5.45  0.  0.
   547  5.46  0.  0.
   548  5.47  0.  0.
   549  5.48  0.  0.
   550  5.49  0.  0.
   551  5.50  0.  0.
   552  5.51  0.  0.
   553  5.52  0.  0.
   554  5.53  0.  0.
   555  5.54  0.  0.
   556  5.55  0.  0.
   557  5.56  0.  0.
   558  5.57  0.  0.
   559  5.58  0.  0.
   560  5.59  0.  0.
   561  5.60  0.  0.
   562  5.61  0.  0.
   563  5.62  0.  0.
   564  5.63  0.  0.
   565  5.64  0.  0.
   566  5.65  0.  0.
   567  5.66  0.  0.
   568  5.67  0.  0.
   569  5.68  0.  0.
   570  5.69  0.  0.
   571  5.70  0.  0.
   572  5.71  0.  0.
   573  5.72  0.  0.
   574  5.73  0.  0.
   575  5.74  0.  0.
   576  5.75  0.  0.
   577  5.76  0.  0.
   578  5.77  0.  0.
   579  5.78  0.  0.
   580  5.79  0.  0.
   581  5.80  0.  0.
   582  5.81  0.  0.
   583  5.82  0.  0.
   584  5.83  0.  0.
   585  5.84  0.  0.
   586  5.85  0.  0.
   587  5.86  0.  0.
   588  5.87  0.  0.
   589  5.88  0.  0.
   590  5.89  0.  0.
   591  5.90  0.  0.
   592  5.91  0.  0.
   593  5.92  0.  0.
   594  5.93  0.  0.
   595  5.94  0.  0.
   596  5.95  0.  0.
   597  5.96  0.  0.
   598  5.97  0.  0.
   599  5.98  0.  0.
   600  5.99  0.  0.
   1                        -2.7474117539033E+00 -8.3725610360987E-01
     1  0.0000000000000E+00  2.5880040777082E-08 -1.4055407945163E-08
     2  1.0000000000000E-02  1.3973666297413E-03  2.8074161046019E-04
     3  2.0000000000000E-02  5.5743749999629E-03  1.1246187574739E-03
     4  3.0000000000000E-02  1.2486260579390E-02  2.5363771868139E-03
     5  4.0000000000000E-02  2.2060099333444E-02  4.5232318916592E-03
     6  5.0000000000000E-02  3.4197275479410E-02  7.0938579011904E-03
     7  6.0000000000000E-02  4.8776822976236E-02  1.0257041603727E-02
     8  7.0000000000000E-02  6.5659531244810E-02  1.4020054272109E-02
     9  8.0000000000000E-02  8.4692679734564E-02  1.8386823514445E-02
    10  9.0000000000000E-02  1.0571524393202E-01  2.3355989897605E-02
    11  1.0000000000000E-01  1.2856339789553E-01  2.8918944571845E-02
    12  1.1000000000000E-01  1.5307612592743E-01  3.5057949036490E-02
    13  1.2000000000000E-01  1.7910074895707E-01  4.1744439999234E-02
    14  1.3000000000000E-01  2.0649816986160E-01  4.8937620462873E-02
    15  1.4000000000000E-01  2.3514764639733E-01  5.6583432704971E-02
    16  1.5000000000000E-01  2.6495091060471E-01  6.4613999780114E-02
    17  1.6000000000000E-01  2.9583546927525E-01  7.2947609770610E-02
    18  1.7000000000000E-01  3.2775694097662E-01  8.1489301532572E-02
    19  1.8000000000000E-01  3.6070031072093E-01  9.0132092530491E-02
    20  1.9000000000000E-01  3.9468001300275E-01  9.8758869003439E-02
    21  2.0000000000000E-01  4.2973878688041E-01  1.0724493672073E-01
    22  2.1000000000000E-01  4.6594528218232E-01  1.1546120758244E-01
    23  2.2000000000000E-01  5.0339043286679E-01  1.2327797396568E-01
    24  2.3000000000000E-01  5.4218265107146E-01  1.3056919970311E-01
    25  2.4000000000000E-01  5.8244193245045E-01  1.3721723460699E-01
    26  2.5000000000000E-01  6.2429299899833E-01  1.4311783921164E-01
    27  2.6000000000000E-01  6.6785763871089E-01  1.4818538856038E-01
    28  2.7000000000000E-01  7.1324643118540E-01  1.5235810902469E-01
    29  2.8000000000000E-01  7.6055007374664E-01  1.5560319085883E-01
    30  2.9000000000000E-01  8.0983054311747E-01  1.5792161192936E-01
    31  3.0000000000000E-01  8.6111234237521E-01  1.5935250518187E-01
    32  3.1000000000000E-01  9.1437409141744E-01  1.5997690417391E-01
    33  3.2000000000000E-01  9.6954072102817E-01  1.5992070755448E-01
    34  3.3000000000000E-01  1.0264765256738E+00  1.5935671471474E-01
    35  3.4000000000000E-01  1.0849793183249E+00  1.5850560085727E-01
    36  3.5000000000000E-01  1.1447759120276E+00  1.5763572018178E-01
    37  3.6000000000000E-01  1.2055191279432E+00  1.5706165038991E-01
    38  3.7000000000000E-01  1.2667864986173E+00  1.5714141977406E-01
    39  3.8000000000000E-01  1.3280807989609E+00  1.5827238916884E-01
    40  3.9000000000000E-01  1.3888324966228E+00  1.6088579430530E-01
    41  4.0000000000000E-01  1.4484041690079E+00  1.6543998882959E-01
    42  4.1000000000000E-01  1.5060968871895E+00  1.7241246358194E-01
    43  4.2000000000000E-01  1.5611585184767E+00  1.8229075278368E-01
    44  4.3000000000000E-01  1.6127938506091E+00  1.9556237163746E-01
    45  4.4000000000000E-01  1.6601763926626E+00  2.1270396159523E-01
    46  4.5000000000000E-01  1.7024616619613E+00  2.3416984830588E-01
    47  4.6000000000000E-01  1.7388017237934E+00  2.6038024218061E-01
    48  4.7000000000000E-01  1.7683607126190E+00  2.9170933184680E-01
    49  4.8000000000000E-01  1.7903310307943E+00  3.2847353582767E-01
    50  4.9000000000000E-01  1.8039498945125E+00  3.7092018702838E-01
    51  5.0000000000000E-01  1.8085158774749E+00  4.1921692760417E-01
    52  5.1000000000000E-01  1.8034050913576E+00  4.7344208824776E-01
    53  5.2000000000000E-01  1.7880866388877E+00  5.3357631573942E-01
    54  5.3000000000000E-01  1.7621369805118E+00  5.9949569578784E-01
    55  5.4000000000000E-01  1.7252528692969E+00  6.7096659495977E-01
    56  5.5000000000000E-01  1.6772625306665E+00  7.4764241621815E-01
    57  5.6000000000000E-01  1.6181347934922E+00  8.2906242779319E-01
    58  5.7000000000000E-01  1.5479859163509E+00  9.1465278547870E-01
    59  5.8000000000000E-01  1.4670838966787E+00  1.0037298247931E+00
    60  5.9000000000000E-01  1.3758501001598E+00  1.0955056527113E+00
    61  6.0000000000000E-01  1.2748581019126E+00  1.1890960198970E+00
    62  6.1000000000000E-01  1.1648296886561E+00  1.2835304046549E+00
    63  6.2000000000000E-01  1.0466280307557E+00  1.3777641903502E+00
    64  6.3000000000000E-01  9.2124809346623E-01  1.4706927699854E+00
    65  6.4000000000000E-01  7.8980441641080E-01  1.5611673661650E+00
    66  6.5000000000000E-01  6.5351644792273E-01  1.6480123129614E+00
    67  6.6000000000000E-01  5.1369167496202E-01  1.7300435092904E+00
    68  6.7000000000000E-01  3.7170683857015E-01  1.8060877223029E+00
    69  6.8000000000000E-01  2.2898756803738E-01  1.8750023948577E+00
    70  6.9000000000000E-01  8.6986803033469E-02  1.9356955940868E+00
    71  7.0000000000000E-01 -5.2837599024467E-02  1.9871457289458E+00
    72  7.1000000000000E-01 -1.8904565387091E-01  2.0284206638437E+00
    73  7.2000000000000E-01 -3.2023801317303E-01  2.0586958631470E+00
    74  7.3000000000000E-01 -4.4507827257491E-01  2.0772712175310E+00
    75  7.4000000000000E-01 -5.6231440789290E-01  2.0835862275934E+00
    76  7.5000000000000E-01 -6.7079894145580E-01  2.0772332524194E+00
    77  7.6000000000000E-01 -7.6950746890825E-01  2.0579685702780E+00
    78  7.7000000000000E-01 -8.5755521374231E-01  2.0257210445396E+00
    79  7.8000000000000E-01 -9.3421132157830E-01  1.9805982392594E+00
    80  7.9000000000000E-01 -9.9891065777555E-01  1.9228898845710E+00
    81  8.0000000000000E-01 -1.0512629291479E+00  1.8530686508363E+00
    82  8.1000000000000E-01 -1.0910590121375E+00  1.7717882513112E+00
    83  8.2000000000000E-01 -1.1182744315190E+00  1.6798789457112E+00
    84  8.3000000000000E-01 -1.1330698732440E+00  1.5783401891413E+00
    85  8.4000000000000E-01 -1.1357841244936E+00  1.4683168252597E+00
    86  8.5000000000000E-01 -1.1269176478713E+00  1.3510568617666E+00
    87  8.6000000000000E-01 -1.1071189191801E+00  1.2278877859610E+00
    88  8.7000000000000E-01 -1.0771700988960E+00  1.1001971822323E+00
    89  8.8000000000000E-01 -1.0379705908716E+00  9.6941219079313E-01
    90  8.9000000000000E-01 -9.9051882639765E-01  8.3697817263037E-01
    91  9.0000000000000E-01 -9.3589265437139E-01  7.0433699255176E-01
    92  9.1000000000000E-01 -8.7522874349448E-01  5.7290534059533E-01
    93  9.2000000000000E-01 -8.0970141901535E-01  4.4405351305182E-01
    94  9.3000000000000E-01 -7.4050136370098E-01  3.1908506612589E-01
    95  9.4000000000000E-01 -6.6881461032713E-01  1.9921773797429E-01
    96  9.5000000000000E-01 -5.9580224112714E-01  8.5566008872555E-02
    97  9.6000000000000E-01 -5.2258118865299E-01 -2.0874364870256E-02
    98  9.7000000000000E-01 -4.5020650291517E-01 -1.1923954915909E-01
    99  9.8000000000000E-01 -3.7965541223393E-01 -2.0880831642475E-01
   100  9.9000000000000E-01 -3.1181346083612E-01 -2.8901002332619E-01
   101  1.0000000000000E+00 -2.4746295598990E-01 -3.5942974678044E-01
   102  1.0100000000000E+00 -1.8727390258068E-01 -4.1981050377995E-01
   103  1.0200000000000E+00 -1.3179754480866E-01 -4.7005254252716E-01
   104  1.0300000000000E+00 -8.1462574503394E-02 -5.1020975464328E-01
   105  1.0400000000000E+00 -3.6574004896570E-02 -5.4048331911648E-01
   106  1.0500000000000E+00  2.6853510737338E-03 -5.6121274693892E-01
   107  1.0600000000000E+00  3.6250916333650E-02 -5.7286454970729E-01
   108  1.0700000000000E+00  6.4170071256103E-02 -5.7601880448614E-01
   109  1.0800000000000E+00  8.6593782363824E-02 -5.7135393005018E-01
   110  1.0900000000000E+00  1.0376640211774E-01 -5.5963002504077E-01
   111  1.1000000000000E+00  1.1601393970466E-01 -5.4167114595900E-01
   112  1.1100000000000E+00  1.2373113094644E-01 -5.1834692158967E-01
   113  1.1200000000000E+00  1.2736765528133E-01 -4.9055391001458E-01
   114  1.1300000000000E+00  1.2741385892134E-01 -4.5919710462097E-01
   115  1.1400000000000E+00  1.2438634554135E-01 -4.2517198654864E-01
   116  1.1500000000000E+00  1.1881378922691E-01 -3.8934750288290E-01
   117  1.1600000000000E+00  1.1122330932481E-01 -3.5255032339977E-01
   118  1.1700000000000E+00  1.0212772347814E-01 -3.1555069394617E-01
   119  1.1800000000000E+00  9.2013964582452E-02 -2.7905016306210E-01
   120  1.1900000000000E+00  8.1332910031778E-02 -2.4367141055122E-01
   121  1.2000000000000E+00  7.0490828895713E-02 -2.0995035413026E-01
   122  1.2100000000000E+00  5.9842605438701E-02 -1.7833065393058E-01
   123  1.2200000000000E+00  4.9686846841175E-02 -1.4916067578860E-01
   124  1.2300000000000E+00  4.0262930938136E-02 -1.2269291492589E-01
   125  1.2400000000000E+00  3.1749996666819E-02 -9.9085822152114E-02
   126  1.2500000000000E+00  2.4267828125808E-02 -7.8407917724319E-02
   127  1.2600000000000E+00  1.7879533248863E-02 -6.0644023958373E-02
   128  1.2700000000000E+00  1.2595871534880E-02 -4.5703398122315E-02
   129  1.2800000000000E+00  8.3810435375912E-03 -3.3429503542386E-02
   130  1.2900000000000E+00  5.1597184599507E-03 -2.3611119740902E-02
   131  1.3000000000000E+00  2.8250453407232E-03 -1.5994461765372E-02
   132  1.3100000000000E+00  1.2473816599073E-03 -1.0295970880497E-02
   133  1.3200000000000E+00  2.8341008641575E-04 -6.2153647525677E-03
   134  1.3300000000000E+00 -2.1361913247425E-04 -3.4497701765507E-03
   135  1.3400000000000E+00 -3.8253591837970E-04 -1.7082913755839E-03
   136  1.3500000000000E+00 -3.5271961901387E-04 -7.1615189589905E-04
   137  1.3600000000000E+00 -2.3407849273028E-04 -2.2879027709761E-04
   138  1.3700000000000E+00 -1.0934280263717E-04 -4.1877238908882E-05
   139  1.3800000000000E+00 -2.7877111339104E-05  6.1219315991171E-07
   140  1.3900000000000E+00 -1.0969195343313E-06  6.0280732075097E-07