Mo    ONCVPSP-3.3.1  r_core=   2.31752   2.51934   2.58017
     42.0000     14.0000      191231    zatom,zion,pspd
     8      11   2     4   600     0    pspcod,pspxc,lmax,lloc,mmax,r2well
  5.99000000  0.00000000  0.00000000    rchrg fchrg qchrg
     2     2     2     0     0    nproj
     1     1           extension_switch
   0                         5.6374179639299E+00  1.0758737552592E+00
     1  0.0000000000000E+00  6.8752226134450E-12 -1.6143850145589E-11
     2  1.0000000000000E-02  4.9212222770955E-02 -8.3817958836614E-03
     3  2.0000000000000E-02  9.8368200997025E-02 -1.6740926368757E-02
     4  3.0000000000000E-02  1.4741172592526E-01 -2.5054670101965E-02
     5  4.0000000000000E-02  1.9628666060823E-01 -3.3300194508200E-02
     6  5.0000000000000E-02  2.4493697635928E-01 -4.1454501895068E-02
     7  6.0000000000000E-02  2.9330678986575E-01 -4.9494377604310E-02
     8  7.0000000000000E-02  3.4134040117159E-01 -5.7396340873693E-02
     9  8.0000000000000E-02  3.8898233273380E-01 -6.5136599056657E-02
    10  9.0000000000000E-02  4.3617736974840E-01 -7.2691005827035E-02
    11  1.0000000000000E-01  4.8287060193182E-01 -8.0035023972390E-02
    12  1.1000000000000E-01  5.2900746693182E-01 -8.7143693351968E-02
    13  1.2000000000000E-01  5.7453379552852E-01 -9.3991604564235E-02
    14  1.3000000000000E-01  6.1939585877202E-01 -1.0055287883442E-01
    15  1.4000000000000E-01  6.6354041718656E-01 -1.0680115459467E-01
    16  1.5000000000000E-01  7.0691477215416E-01 -1.1270958118859E-01
    17  1.6000000000000E-01  7.4946681957211E-01 -1.1825082008794E-01
    18  1.7000000000000E-01  7.9114510585896E-01 -1.2339705396295E-01
    19  1.8000000000000E-01  8.3189888636317E-01 -1.2812000389830E-01
    20  1.9000000000000E-01  8.7167818620690E-01 -1.3239095499590E-01
    21  2.0000000000000E-01  9.1043386357535E-01 -1.3618079055165E-01
    22  2.1000000000000E-01  9.4811767543864E-01 -1.3946003493876E-01
    23  2.2000000000000E-01  9.8468234567015E-01 -1.4219890527314E-01
    24  2.3000000000000E-01  1.0200816355009E+00 -1.4436737187855E-01
    25  2.4000000000000E-01  1.0542704162254E+00 -1.4593522751025E-01
    26  2.5000000000000E-01  1.0872047440502E+00 -1.4687216523661E-01
    27  2.6000000000000E-01  1.1188419369513E+00 -1.4714786481771E-01
    28  2.7000000000000E-01  1.1491406533827E+00 -1.4673208736059E-01
    29  2.8000000000000E-01  1.1780609726546E+00 -1.4559477797071E-01
    30  2.9000000000000E-01  1.2055644767753E+00 -1.4370617606018E-01
    31  3.0000000000000E-01  1.2316143335272E+00 -1.4103693291529E-01
    32  3.1000000000000E-01  1.2561753805276E+00 -1.3755823606858E-01
    33  3.2000000000000E-01  1.2792142099991E+00 -1.3324193996546E-01
    34  3.3000000000000E-01  1.3006992539574E+00 -1.2806070236185E-01
    35  3.4000000000000E-01  1.3206008695023E+00 -1.2198812583777E-01
    36  3.5000000000000E-01  1.3388914238809E+00 -1.1499890376296E-01
    37  3.6000000000000E-01  1.3555453789734E+00 -1.0706897000465E-01
    38  3.7000000000000E-01  1.3705393748379E+00 -9.8175651624321E-02
    39  3.8000000000000E-01  1.3838523119345E+00 -8.8297823770998E-02
    40  3.9000000000000E-01  1.3954654316407E+00 -7.7416065942224E-02
    41  4.0000000000000E-01  1.4053623946536E+00 -6.5512818752280E-02
    42  4.1000000000000E-01  1.4135293568725E+00 -5.2572540318937E-02
    43  4.2000000000000E-01  1.4199550423437E+00 -3.8581861356614E-02
    44  4.3000000000000E-01  1.4246308128486E+00 -2.3529738045049E-02
    45  4.4000000000000E-01  1.4275507337111E+00 -7.4076017282885E-03
    46  4.5000000000000E-01  1.4287116354033E+00  9.7904955102208E-03
    47  4.6000000000000E-01  1.4281131705274E+00  2.8067740354781E-02
    48  4.7000000000000E-01  1.4257578657595E+00  4.7424423803887E-02
    49  4.8000000000000E-01  1.4216511683468E+00  6.7857813706478E-02
    50  4.9000000000000E-01  1.4158014867578E+00  8.9362035226679E-02
    51  5.0000000000000E-01  1.4082202250994E+00  1.1192796015811E-01
    52  5.1000000000000E-01  1.3989218109277E+00  1.3554310598617E-01
    53  5.2000000000000E-01  1.3879237160943E+00  1.6019154556818E-01
    54  5.3000000000000E-01  1.3752464702934E+00  1.8585382826773E-01
    55  5.4000000000000E-01  1.3609136669904E+00  2.1250691334020E-01
    56  5.5000000000000E-01  1.3449519614411E+00  2.4012411632242E-01
    57  5.6000000000000E-01  1.3273910605330E+00  2.6867506912984E-01
    58  5.7000000000000E-01  1.3082637042097E+00  2.9812569451012E-01
    59  5.8000000000000E-01  1.2876056382689E+00  3.2843819544328E-01
    60  5.9000000000000E-01  1.2654555783542E+00  3.5957106001458E-01
    61  6.0000000000000E-01  1.2418551649981E+00  3.9147908221874E-01
    62  6.1000000000000E-01  1.2168489096036E+00  4.2411339908212E-01
    63  6.2000000000000E-01  1.1904841312932E+00  4.5742154441415E-01
    64  6.3000000000000E-01  1.1628108845876E+00  4.9134751942032E-01
    65  6.4000000000000E-01  1.1338818779186E+00  5.2583188032768E-01
    66  6.5000000000000E-01  1.1037523830176E+00  5.6081184308929E-01
    67  6.6000000000000E-01  1.0724801352655E+00  5.9622140514753E-01
    68  6.7000000000000E-01  1.0401252251253E+00  6.3199148414868E-01
    69  6.8000000000000E-01  1.0067499808278E+00  6.6805007341123E-01
    70  6.9000000000000E-01  9.7241884251497E-01  7.0432241386046E-01
    71  7.0000000000000E-01  9.3719822809295E-01  7.4073118205182E-01
    72  7.1000000000000E-01  9.0115639108515E-01  7.7719669381482E-01
    73  7.2000000000000E-01  8.6436327081776E-01  8.1363712296011E-01
    74  7.3000000000000E-01  8.2689033531041E-01  8.4996873440382E-01
    75  7.4000000000000E-01  7.8881041728382E-01  8.8610613097694E-01
    76  7.5000000000000E-01  7.5019754373435E-01  9.2196251310300E-01
    77  7.6000000000000E-01  7.1112675956269E-01  9.5744995044565E-01
    78  7.7000000000000E-01  6.7167394577884E-01  9.9247966454949E-01
    79  7.8000000000000E-01  6.3191563283895E-01  1.0269623214226E+00
    80  7.9000000000000E-01  5.9192880970129E-01  1.0608083329392E+00
    81  8.0000000000000E-01  5.5179072921784E-01  1.0939281658739E+00
    82  8.1000000000000E-01  5.1157871050476E-01  1.1262326573205E+00
    83  8.2000000000000E-01  4.7136993895936E-01  1.1576333351904E+00
    84  8.3000000000000E-01  4.3124126461308E-01  1.1880427424373E+00
    85  8.4000000000000E-01  3.9126899952816E-01  1.2173747636141E+00
    86  8.5000000000000E-01  3.5152871496197E-01  1.2455449523272E+00
    87  8.6000000000000E-01  3.1209503903503E-01  1.2724708581275E+00
    88  8.7000000000000E-01  2.7304145564830E-01  1.2980723513527E+00
    89  8.8000000000000E-01  2.3444010540109E-01  1.3222719444227E+00
    90  8.9000000000000E-01  1.9636158926363E-01  1.3449951080800E+00
    91  9.0000000000000E-01  1.5887477575692E-01  1.3661705810689E+00
    92  9.1000000000000E-01  1.2204661238833E-01  1.3857306717557E+00
    93  9.2000000000000E-01  8.5941942083161E-02  1.4036115502065E+00
    94  9.3000000000000E-01  5.0623325340470E-02  1.4197535292654E+00
    95  9.4000000000000E-01  1.6150868826705E-02  1.4341013332050E+00
    96  9.5000000000000E-01 -1.7417938898531E-02  1.4466043525637E+00
    97  9.6000000000000E-01 -5.0028383852108E-02  1.4572168838285E+00
    98  9.7000000000000E-01 -8.1628674645605E-02  1.4658983526789E+00
    99  9.8000000000000E-01 -1.1217008143409E-01  1.4726135195682E+00
   100  9.9000000000000E-01 -1.4160706520996E-01  1.4773326664892E+00
   101  1.0000000000000E+00 -1.6989739688982E-01  1.4800317638430E+00
   102  1.0100000000000E+00 -1.9700226568223E-01  1.4806926164158E+00
   103  1.0200000000000E+00 -2.2288637626341E-01  1.4793029875541E+00
   104  1.0300000000000E+00 -2.4751803433134E-01  1.4758567007230E+00
   105  1.0400000000000E+00 -2.7086922015393E-01  1.4703537177276E+00
   106  1.0500000000000E+00 -2.9291564977636E-01  1.4628001929877E+00
   107  1.0600000000000E+00 -3.1363682359682E-01  1.4532085033502E+00
   108  1.0700000000000E+00 -3.3301606207724E-01  1.4415972530469E+00
   109  1.0800000000000E+00 -3.5104052840349E-01  1.4279912535093E+00
   110  1.0900000000000E+00 -3.6770123796377E-01  1.4124214778697E+00
   111  1.1000000000000E+00 -3.8299305457185E-01  1.3949249901009E+00
   112  1.1100000000000E+00 -3.9691467340607E-01  1.3755448488439E+00
   113  1.1200000000000E+00 -4.0946859070346E-01  1.3543299861170E+00
   114  1.1300000000000E+00 -4.2066106029284E-01  1.3313350611969E+00
   115  1.1400000000000E+00 -4.3050203711367E-01  1.3066202900953E+00
   116  1.1500000000000E+00 -4.3900510790848E-01  1.2802512511404E+00
   117  1.1600000000000E+00 -4.4618740934428E-01  1.2522986673180E+00
   118  1.1700000000000E+00 -4.5206953386102E-01  1.2228381661130E+00
   119  1.1800000000000E+00 -4.5667542360274E-01  1.1919500177138E+00
   120  1.1900000000000E+00 -4.6003225281877E-01  1.1597188525084E+00
   121  1.2000000000000E+00 -4.6217029919217E-01  1.1262333589421E+00
   122  1.2100000000000E+00 -4.6312280458365E-01  1.0915859628721E+00
   123  1.2200000000000E+00 -4.6292582571675E-01  1.0558724896272E+00
   124  1.2300000000000E+00 -4.6161807537723E-01  1.0191918100767E+00
   125  1.2400000000000E+00 -4.5924075473756E-01  9.8164547208458E-01
   126  1.2500000000000E+00 -4.5583737744177E-01  9.4333731877076E-01
   127  1.2600000000000E+00 -4.5145358611578E-01  9.0437309505959E-01
   128  1.2700000000000E+00 -4.4613696200725E-01  8.6486004406262E-01
   129  1.2800000000000E+00 -4.3993682846657E-01  8.2490649485338E-01
   130  1.2900000000000E+00 -4.3290404900256E-01  7.8462144323240E-01
   131  1.3000000000000E+00 -4.2509082067202E-01  7.4411412711236E-01
   132  1.3100000000000E+00 -4.1655046355768E-01  7.0349359813988E-01
   133  1.3200000000000E+00 -4.0733720710789E-01  6.6286829120162E-01
   134  1.3300000000000E+00 -3.9750597411012E-01  6.2234559342990E-01
   135  1.3400000000000E+00 -3.8711216306671E-01  5.8203141431906E-01
   136  1.3500000000000E+00 -3.7621142974900E-01  5.4202975856098E-01
   137  1.3600000000000E+00 -3.6485946867254E-01  5.0244230310509E-01
   138  1.3700000000000E+00 -3.5311179525748E-01  4.6336798001176E-01
   139  1.3800000000000E+00 -3.4102352939675E-01  4.2490256653225E-01
   140  1.3900000000000E+00 -3.2864918112652E-01  3.8713828377996E-01
   141  1.4000000000000E+00 -3.1604243912816E-01  3.5016340544302E-01
   142  1.4100000000000E+00 -3.0325596266850E-01  3.1406187765797E-01
   143  1.4200000000000E+00 -2.9034117765314E-01  2.7891295134894E-01
   144  1.4300000000000E+00 -2.7734807738366E-01  2.4479082810729E-01
   145  1.4400000000000E+00 -2.6432502853875E-01  2.1176432051616E-01
   146  1.4500000000000E+00 -2.5131858300001E-01  1.7989652806961E-01
   147  1.4600000000000E+00 -2.3837329588584E-01  1.4924452919584E-01
   148  1.4700000000000E+00 -2.2553155035435E-01  1.1985909038487E-01
   149  1.4800000000000E+00 -2.1283338949997E-01  9.1784392834730E-02
   150  1.4900000000000E+00 -2.0031635570889E-01  6.5057777139932E-02
   151  1.5000000000000E+00 -1.8801533645957E-01  3.9709501798990E-02
   152  1.5100000000000E+00 -1.7596242399668E-01  1.5762540810847E-02
   153  1.5200000000000E+00 -1.6418676852014E-01 -6.7676510931992E-03
   154  1.5300000000000E+00 -1.5271450337180E-01 -2.7873138892497E-02
   155  1.5400000000000E+00 -1.4156848471773E-01 -4.7554142980982E-02
   156  1.5500000000000E+00 -1.3076827590413E-01 -6.5818865883715E-02
   157  1.5600000000000E+00 -1.2033052972842E-01 -8.2681939180191E-02
   158  1.5700000000000E+00 -1.1026930609456E-01 -9.8163203076088E-02
   159  1.5800000000000E+00 -1.0059656922274E-01 -1.1228597076050E-01
   160  1.5900000000000E+00 -9.1322316802772E-02 -1.2507657118477E-01
   161  1.6000000000000E+00 -8.2454496597321E-02 -1.3656467233113E-01
   162  1.6100000000000E+00 -7.3999108012753E-02 -1.4678295123016E-01
   163  1.6200000000000E+00 -6.5960259145336E-02 -1.5576693126682E-01
   164  1.6300000000000E+00 -5.8340235817276E-02 -1.6355478784483E-01
   165  1.6400000000000E+00 -5.1139573590284E-02 -1.7018715149983E-01
   166  1.6500000000000E+00 -4.4357134426692E-02 -1.7570690289459E-01
   167  1.6600000000000E+00 -3.7990187678861E-02 -1.8015896016517E-01
   168  1.6700000000000E+00 -3.2034494865713E-02 -1.8359006030591E-01
   169  1.6800000000000E+00 -2.6484397649184E-02 -1.8604853600650E-01
   170  1.6900000000000E+00 -2.1332908636306E-02 -1.8758408896844E-01
   171  1.7000000000000E+00 -1.6571804478809E-02 -1.8824756092753E-01
   172  1.7100000000000E+00 -1.2191720824210E-02 -1.8809070359368E-01
   173  1.7200000000000E+00 -8.1822486551863E-03 -1.8716594854133E-01
   174  1.7300000000000E+00 -4.5320314914548E-03 -1.8552617847144E-01
   175  1.7400000000000E+00 -1.2288630902466E-03 -1.8322450058733E-01
   176  1.7500000000000E+00  1.7402149719592E-03 -1.8031402374785E-01
   177  1.7600000000000E+00  4.3888160796957E-03 -1.7684763979908E-01
   178  1.7700000000000E+00  6.7311124196392E-03 -1.7287781095107E-01
   179  1.7800000000000E+00  8.7817400128244E-03 -1.6845636329788E-01
   180  1.7900000000000E+00  1.0555705678902E-02 -1.6363428842971E-01
   181  1.8000000000000E+00  1.2068295986373E-02 -1.5846155304528E-01
   182  1.8100000000000E+00  1.3334988903389E-02 -1.5298691840217E-01
   183  1.8200000000000E+00  1.4371368195359E-02 -1.4725776951740E-01
   184  1.8300000000000E+00  1.5193041158629E-02 -1.4131995557421E-01
   185  1.8400000000000E+00  1.5815559831537E-02 -1.3521764173254E-01
   186  1.8500000000000E+00  1.6254346014912E-02 -1.2899317306453E-01
   187  1.8600000000000E+00  1.6524620469966E-02 -1.2268695144853E-01
   188  1.8700000000000E+00  1.6641336220664E-02 -1.1633732502254E-01
   189  1.8800000000000E+00  1.6619116694217E-02 -1.0998049202668E-01
   190  1.8900000000000E+00  1.6472198097565E-02 -1.0365041720415E-01
   191  1.9000000000000E+00  1.6214377142598E-02 -9.7378763598230E-02
   192  1.9100000000000E+00  1.5858963199628E-02 -9.1194837078999E-02
   193  1.9200000000000E+00  1.5418735895235E-02 -8.5125546147442E-02
   194  1.9300000000000E+00  1.4905907499960E-02 -7.9195375092488E-02
   195  1.9400000000000E+00  1.4332090518190E-02 -7.3426371413815E-02
   196  1.9500000000000E+00  1.3708270453533E-02 -6.7838147265614E-02
   197  1.9600000000000E+00  1.3044783327388E-02 -6.2447893630497E-02
   198  1.9700000000000E+00  1.2351298640412E-02 -5.7270408845068E-02
   199  1.9800000000000E+00  1.1636806656538E-02 -5.2318138391998E-02
   200  1.9900000000000E+00  1.0909610982708E-02 -4.7601228278617E-02
   201  2.0000000000000E+00  1.0177325375808E-02 -4.3127589089254E-02
   202  2.0100000000000E+00  9.4468751394605E-03 -3.8902971436434E-02
   203  2.0200000000000E+00  8.7245028403223E-03 -3.4931051940657E-02
   204  2.0300000000000E+00  8.0157777064868E-03 -3.1213527950787E-02
   205  2.0400000000000E+00  7.3256093048654E-03 -2.7750222285489E-02
   206  2.0500000000000E+00  6.6582644674882E-03 -2.4539195319295E-02
   207  2.0600000000000E+00  6.0173874359592E-03 -2.1576863949176E-02
   208  2.0700000000000E+00  5.4060228015761E-03 -1.8858126332399E-02
   209  2.0800000000000E+00  4.8266410533165E-03 -1.6376491746470E-02
   210  2.0900000000000E+00  4.2811671141691E-03 -1.4124216327497E-02
   211  2.1000000000000E+00  3.7710109238734E-03 -1.2092442324592E-02
   212  2.1100000000000E+00  3.2970989230162E-03 -1.0271337314192E-02
   213  2.1200000000000E+00  2.8599070488980E-03 -8.6502352055127E-03
   214  2.1300000000000E+00  2.4594947935909E-03 -7.2177776421246E-03
   215  2.1400000000000E+00  2.0955403679450E-03 -5.9620556760573E-03
   216  2.1500000000000E+00  1.7673763041317E-03 -4.8707501801470E-03
   217  2.1600000000000E+00  1.4740245870407E-03 -3.9312680486723E-03
   218  2.1700000000000E+00  1.2142317486712E-03 -3.1308755953297E-03
   219  2.1800000000000E+00  9.8650349709553E-04 -2.4568278973265E-03
   220  2.1900000000000E+00  7.8913817495490E-04 -1.8964918633549E-03
   221  2.2000000000000E+00  6.2025955326510E-04 -1.4374647828246E-03
   222  2.2100000000000E+00  4.7784780240941E-04 -1.0676847814564E-03
   223  2.2200000000000E+00  3.5976877017144E-04 -7.7553365925167E-04
   224  2.2300000000000E+00  2.6380200767204E-04 -5.4993349527027E-04
   225  2.2400000000000E+00  1.8767103207131E-04 -3.8046584156700E-04
   226  2.2500000000000E+00  1.2905301969569E-04 -2.5736128555122E-04
   227  2.2600000000000E+00  8.5593203763369E-05 -1.7152585572048E-04
   228  2.2700000000000E+00  5.4816001660998E-05 -1.1436829866185E-04
   229  2.2800000000000E+00  3.4652222380266E-05 -7.9489582812717E-05
   230  2.2900000000000E+00  2.3003259488458E-05 -6.1233858111500E-05
   231  2.3000000000000E+00  1.8198781425787E-05 -5.5785713867135E-05
   232  2.3100000000000E+00  1.6124727377374E-05 -5.2869636785511E-05
   233  2.3200000000000E+00  1.3450922376271E-05 -4.4665996154591E-05
   234  2.3300000000000E+00  8.1530538181321E-06 -2.7103358835460E-05
   235  2.3400000000000E+00  2.5094938652281E-06 -8.2965632730929E-06
   236  2.3500000000000E+00 -9.6943030008016E-07  3.2881747881000E-06
   237  2.3600000000000E+00 -1.4293405640904E-06  4.8526414245963E-06
   238  2.3700000000000E+00 -4.5265096120057E-07  1.5369974666856E-06
   239  2.3800000000000E+00  2.4139648163613E-07 -8.3002276057939E-07
   240  2.3900000000000E+00  3.0178409518830E-07 -1.0396727434166E-06
   241  2.4000000000000E+00  6.1715015893827E-08 -2.1295556643509E-07
   242  2.4100000000000E+00 -3.3863581668652E-08  1.1217664116520E-07
   243  2.4200000000000E+00 -3.6826340992810E-08  1.2199108999748E-07
   244  2.4300000000000E+00 -3.3014352711932E-09  1.0936348179897E-08
   245  2.4400000000000E+00  0.0000000000000E+00  0.0000000000000E+00
   246  2.4500000000000E+00  0.0000000000000E+00  0.0000000000000E+00
   247  2.4600000000000E+00  0.0000000000000E+00  0.0000000000000E+00
   248  2.4700000000000E+00  0.0000000000000E+00  0.0000000000000E+00
   249  2.4800000000000E+00  0.0000000000000E+00  0.0000000000000E+00
   250  2.4900000000000E+00  0.0000000000000E+00  0.0000000000000E+00
   251  2.5000000000000E+00  0.0000000000000E+00  0.0000000000000E+00
   252  2.5100000000000E+00  0.0000000000000E+00  0.0000000000000E+00
   253  2.5200000000000E+00  0.0000000000000E+00  0.0000000000000E+00
   254  2.5300000000000E+00  0.0000000000000E+00  0.0000000000000E+00
   255  2.5400000000000E+00  0.0000000000000E+00  0.0000000000000E+00
   256  2.5500000000000E+00  0.0000000000000E+00  0.0000000000000E+00
   257  2.5600000000000E+00  0.0000000000000E+00  0.0000000000000E+00
   258  2.5700000000000E+00  0.0000000000000E+00  0.0000000000000E+00
   259  2.5800000000000E+00  0.0000000000000E+00  0.0000000000000E+00
   260  2.5900000000000E+00  0.0000000000000E+00  0.0000000000000E+00
   261  2.6000000000000E+00  0.0000000000000E+00  0.0000000000000E+00
   262  2.6100000000000E+00  0.0000000000000E+00  0.0000000000000E+00
   263  2.6200000000000E+00  0.0000000000000E+00  0.0000000000000E+00
   264  2.6300000000000E+00  0.0000000000000E+00  0.0000000000000E+00
   265  2.6400000000000E+00  0.0000000000000E+00  0.0000000000000E+00
   266  2.6500000000000E+00  0.0000000000000E+00  0.0000000000000E+00
   267  2.6600000000000E+00  0.0000000000000E+00  0.0000000000000E+00
   268  2.6700000000000E+00  0.0000000000000E+00  0.0000000000000E+00
   269  2.6800000000000E+00  0.0000000000000E+00  0.0000000000000E+00
   270  2.6900000000000E+00  0.0000000000000E+00  0.0000000000000E+00
   271  2.7000000000000E+00  0.0000000000000E+00  0.0000000000000E+00
   272  2.7100000000000E+00  0.0000000000000E+00  0.0000000000000E+00
   273  2.7200000000000E+00  0.0000000000000E+00  0.0000000000000E+00
   274  2.7300000000000E+00  0.0000000000000E+00  0.0000000000000E+00
   275  2.7400000000000E+00  0.0000000000000E+00  0.0000000000000E+00
   276  2.7500000000000E+00  0.0000000000000E+00  0.0000000000000E+00
   277  2.7600000000000E+00  0.0000000000000E+00  0.0000000000000E+00
   278  2.7700000000000E+00  0.0000000000000E+00  0.0000000000000E+00
   279  2.7800000000000E+00  0.0000000000000E+00  0.0000000000000E+00
   280  2.7900000000000E+00  0.0000000000000E+00  0.0000000000000E+00
   281  2.8000000000000E+00  0.0000000000000E+00  0.0000000000000E+00
   282  2.8100000000000E+00  0.0000000000000E+00  0.0000000000000E+00
   283  2.8200000000000E+00  0.0000000000000E+00  0.0000000000000E+00
   284  2.8300000000000E+00  0.0000000000000E+00  0.0000000000000E+00
   285  2.8400000000000E+00  0.0000000000000E+00  0.0000000000000E+00
   286  2.8500000000000E+00  0.0000000000000E+00  0.0000000000000E+00
   287  2.8600000000000E+00  0.0000000000000E+00  0.0000000000000E+00
   288  2.8700000000000E+00  0.0000000000000E+00  0.0000000000000E+00
   289  2.8800000000000E+00  0.0000000000000E+00  0.0000000000000E+00
   290  2.8900000000000E+00  0.0000000000000E+00  0.0000000000000E+00
   291  2.9000000000000E+00  0.0000000000000E+00  0.0000000000000E+00
   292  2.9100000000000E+00  0.0000000000000E+00  0.0000000000000E+00
   293  2.9200000000000E+00  0.0000000000000E+00  0.0000000000000E+00
   294  2.9300000000000E+00  0.0000000000000E+00  0.0000000000000E+00
   295  2.9400000000000E+00  0.0000000000000E+00  0.0000000000000E+00
   296  2.9500000000000E+00  0.0000000000000E+00  0.0000000000000E+00
   297  2.9600000000000E+00  0.0000000000000E+00  0.0000000000000E+00
   298  2.9700000000000E+00  0.0000000000000E+00  0.0000000000000E+00
   299  2.9800000000000E+00  0.0000000000000E+00  0.0000000000000E+00
   300  2.9900000000000E+00  0.0000000000000E+00  0.0000000000000E+00
   301  3.0000000000000E+00  0.0000000000000E+00  0.0000000000000E+00
   302  3.0100000000000E+00  0.0000000000000E+00  0.0000000000000E+00
   303  3.0200000000000E+00  0.0000000000000E+00  0.0000000000000E+00
   304  3.0300000000000E+00  0.0000000000000E+00  0.0000000000000E+00
   305  3.0400000000000E+00  0.0000000000000E+00  0.0000000000000E+00
   306  3.0500000000000E+00  0.0000000000000E+00  0.0000000000000E+00
   307  3.0600000000000E+00  0.0000000000000E+00  0.0000000000000E+00
   308  3.0700000000000E+00  0.0000000000000E+00  0.0000000000000E+00
   309  3.0800000000000E+00  0.0000000000000E+00  0.0000000000000E+00
   310  3.0900000000000E+00  0.0000000000000E+00  0.0000000000000E+00
   311  3.1000000000000E+00  0.0000000000000E+00  0.0000000000000E+00
   312  3.1100000000000E+00  0.0000000000000E+00  0.0000000000000E+00
   313  3.1200000000000E+00  0.0000000000000E+00  0.0000000000000E+00
   314  3.1300000000000E+00  0.0000000000000E+00  0.0000000000000E+00
   315  3.1400000000000E+00  0.0000000000000E+00  0.0000000000000E+00
   316  3.1500000000000E+00  0.0000000000000E+00  0.0000000000000E+00
   317  3.1600000000000E+00  0.0000000000000E+00  0.0000000000000E+00
   318  3.1700000000000E+00  0.0000000000000E+00  0.0000000000000E+00
   319  3.1800000000000E+00  0.0000000000000E+00  0.0000000000000E+00
   320  3.1900000000000E+00  0.0000000000000E+00  0.0000000000000E+00
   321  3.2000000000000E+00  0.0000000000000E+00  0.0000000000000E+00
   322  3.2100000000000E+00  0.0000000000000E+00  0.0000000000000E+00
   323  3.2200000000000E+00  0.0000000000000E+00  0.0000000000000E+00
   324  3.2300000000000E+00  0.0000000000000E+00  0.0000000000000E+00
   325  3.2400000000000E+00  0.0000000000000E+00  0.0000000000000E+00
   326  3.2500000000000E+00  0.0000000000000E+00  0.0000000000000E+00
   327  3.2600000000000E+00  0.0000000000000E+00  0.0000000000000E+00
   328  3.2700000000000E+00  0.0000000000000E+00  0.0000000000000E+00
   329  3.2800000000000E+00  0.0000000000000E+00  0.0000000000000E+00
   330  3.2900000000000E+00  0.0000000000000E+00  0.0000000000000E+00
   331  3.3000000000000E+00  0.0000000000000E+00  0.0000000000000E+00
   332  3.3100000000000E+00  0.0000000000000E+00  0.0000000000000E+00
   333  3.3200000000000E+00  0.0000000000000E+00  0.0000000000000E+00
   334  3.3300000000000E+00  0.0000000000000E+00  0.0000000000000E+00
   335  3.3400000000000E+00  0.0000000000000E+00  0.0000000000000E+00
   336  3.3500000000000E+00  0.0000000000000E+00  0.0000000000000E+00
   337  3.3600000000000E+00  0.0000000000000E+00  0.0000000000000E+00
   338  3.3700000000000E+00  0.0000000000000E+00  0.0000000000000E+00
   339  3.3800000000000E+00  0.0000000000000E+00  0.0000000000000E+00
   340  3.3900000000000E+00  0.0000000000000E+00  0.0000000000000E+00
   341  3.4000000000000E+00  0.0000000000000E+00  0.0000000000000E+00
   342  3.4100000000000E+00  0.0000000000000E+00  0.0000000000000E+00
   343  3.4200000000000E+00  0.0000000000000E+00  0.0000000000000E+00
   344  3.4300000000000E+00  0.0000000000000E+00  0.0000000000000E+00
   345  3.4400000000000E+00  0.0000000000000E+00  0.0000000000000E+00
   346  3.4500000000000E+00  0.0000000000000E+00  0.0000000000000E+00
   347  3.4600000000000E+00  0.0000000000000E+00  0.0000000000000E+00
   348  3.4700000000000E+00  0.0000000000000E+00  0.0000000000000E+00
   349  3.4800000000000E+00  0.0000000000000E+00  0.0000000000000E+00
   350  3.4900000000000E+00  0.0000000000000E+00  0.0000000000000E+00
   351  3.5000000000000E+00  0.0000000000000E+00  0.0000000000000E+00
   352  3.5100000000000E+00  0.0000000000000E+00  0.0000000000000E+00
   353  3.5200000000000E+00  0.0000000000000E+00  0.0000000000000E+00
   354  3.5300000000000E+00  0.0000000000000E+00  0.0000000000000E+00
   355  3.5400000000000E+00  0.0000000000000E+00  0.0000000000000E+00
   356  3.5500000000000E+00  0.0000000000000E+00  0.0000000000000E+00
   357  3.5600000000000E+00  0.0000000000000E+00  0.0000000000000E+00
   358  3.5700000000000E+00  0.0000000000000E+00  0.0000000000000E+00
   359  3.5800000000000E+00  0.0000000000000E+00  0.0000000000000E+00
   360  3.5900000000000E+00  0.0000000000000E+00  0.0000000000000E+00
   361  3.6000000000000E+00  0.0000000000000E+00  0.0000000000000E+00
   362  3.6100000000000E+00  0.0000000000000E+00  0.0000000000000E+00
   363  3.6200000000000E+00  0.0000000000000E+00  0.0000000000000E+00
   364  3.6300000000000E+00  0.0000000000000E+00  0.0000000000000E+00
   365  3.6400000000000E+00  0.0000000000000E+00  0.0000000000000E+00
   366  3.6500000000000E+00  0.0000000000000E+00  0.0000000000000E+00
   367  3.6600000000000E+00  0.0000000000000E+00  0.0000000000000E+00
   368  3.6700000000000E+00  0.0000000000000E+00  0.0000000000000E+00
   369  3.6800000000000E+00  0.0000000000000E+00  0.0000000000000E+00
   370  3.6900000000000E+00  0.0000000000000E+00  0.0000000000000E+00
   371  3.7000000000000E+00  0.0000000000000E+00  0.0000000000000E+00
   372  3.7100000000000E+00  0.0000000000000E+00  0.0000000000000E+00
   373  3.7200000000000E+00  0.0000000000000E+00  0.0000000000000E+00
   374  3.7300000000000E+00  0.0000000000000E+00  0.0000000000000E+00
   375  3.7400000000000E+00  0.0000000000000E+00  0.0000000000000E+00
   376  3.7500000000000E+00  0.0000000000000E+00  0.0000000000000E+00
   377  3.7600000000000E+00  0.0000000000000E+00  0.0000000000000E+00
   378  3.7700000000000E+00  0.0000000000000E+00  0.0000000000000E+00
   379  3.7800000000000E+00  0.0000000000000E+00  0.0000000000000E+00
   380  3.7900000000000E+00  0.0000000000000E+00  0.0000000000000E+00
   381  3.8000000000000E+00  0.0000000000000E+00  0.0000000000000E+00
   382  3.8100000000000E+00  0.0000000000000E+00  0.0000000000000E+00
   383  3.8200000000000E+00  0.0000000000000E+00  0.0000000000000E+00
   384  3.8300000000000E+00  0.0000000000000E+00  0.0000000000000E+00
   385  3.8400000000000E+00  0.0000000000000E+00  0.0000000000000E+00
   386  3.8500000000000E+00  0.0000000000000E+00  0.0000000000000E+00
   387  3.8600000000000E+00  0.0000000000000E+00  0.0000000000000E+00
   388  3.8700000000000E+00  0.0000000000000E+00  0.0000000000000E+00
   389  3.8800000000000E+00  0.0000000000000E+00  0.0000000000000E+00
   390  3.8900000000000E+00  0.0000000000000E+00  0.0000000000000E+00
   391  3.9000000000000E+00  0.0000000000000E+00  0.0000000000000E+00
   392  3.9100000000000E+00  0.0000000000000E+00  0.0000000000000E+00
   393  3.9200000000000E+00  0.0000000000000E+00  0.0000000000000E+00
   394  3.9300000000000E+00  0.0000000000000E+00  0.0000000000000E+00
   395  3.9400000000000E+00  0.0000000000000E+00  0.0000000000000E+00
   396  3.9500000000000E+00  0.0000000000000E+00  0.0000000000000E+00
   397  3.9600000000000E+00  0.0000000000000E+00  0.0000000000000E+00
   398  3.9700000000000E+00  0.0000000000000E+00  0.0000000000000E+00
   399  3.9800000000000E+00  0.0000000000000E+00  0.0000000000000E+00
   400  3.9900000000000E+00  0.0000000000000E+00  0.0000000000000E+00
   401  4.0000000000000E+00  0.0000000000000E+00  0.0000000000000E+00
   402  4.0100000000000E+00  0.0000000000000E+00  0.0000000000000E+00
   403  4.0200000000000E+00  0.0000000000000E+00  0.0000000000000E+00
   404  4.0300000000000E+00  0.0000000000000E+00  0.0000000000000E+00
   405  4.0400000000000E+00  0.0000000000000E+00  0.0000000000000E+00
   406  4.0500000000000E+00  0.0000000000000E+00  0.0000000000000E+00
   407  4.0600000000000E+00  0.0000000000000E+00  0.0000000000000E+00
   408  4.0700000000000E+00  0.0000000000000E+00  0.0000000000000E+00
   409  4.0800000000000E+00  0.0000000000000E+00  0.0000000000000E+00
   410  4.0900000000000E+00  0.0000000000000E+00  0.0000000000000E+00
   411  4.1000000000000E+00  0.0000000000000E+00  0.0000000000000E+00
   412  4.1100000000000E+00  0.0000000000000E+00  0.0000000000000E+00
   413  4.1200000000000E+00  0.0000000000000E+00  0.0000000000000E+00
   414  4.1300000000000E+00  0.0000000000000E+00  0.0000000000000E+00
   415  4.1400000000000E+00  0.0000000000000E+00  0.0000000000000E+00
   416  4.1500000000000E+00  0.0000000000000E+00  0.0000000000000E+00
   417  4.1600000000000E+00  0.0000000000000E+00  0.0000000000000E+00
   418  4.1700000000000E+00  0.0000000000000E+00  0.0000000000000E+00
   419  4.1800000000000E+00  0.0000000000000E+00  0.0000000000000E+00
   420  4.1900000000000E+00  0.0000000000000E+00  0.0000000000000E+00
   421  4.2000000000000E+00  0.0000000000000E+00  0.0000000000000E+00
   422  4.2100000000000E+00  0.0000000000000E+00  0.0000000000000E+00